78
Lattice="16.8180535453 0.0 0.0 0.0 16.8180535453 0.0 0.0 0.0 16.8180535453" Properties=species:S:1:pos:R:3:Z:I:1:forces:R:3 energy=-234.638474161 pbc="F F F"
Cu      7.71653760       9.35666148      14.23026872       29       0.00147211       0.00153132      -0.00144814 
Cu     10.00827300       9.81319640      13.35257497       29       0.00101975      -0.00202338       0.00040349 
Cu      8.90589434       7.46301649      13.09966801       29      -0.00364035      -0.00417633      -0.00069689 
Cu      8.21564028      11.54526877      13.02271246       29      -0.00082991       0.00354372      -0.00006336 
Cu      5.98494392      10.34584419      12.75597321       29      -0.00527466       0.00000662      -0.00407552 
Cu      6.44385567       7.78367578      12.69679495       29      -0.00457844       0.00346036       0.00477225 
Cu     12.30433718      10.27128364      12.39727657       29      -0.00089093      -0.00264925       0.00091153 
Cu     11.29808111       7.95437124      12.25682455       29       0.00339319      -0.00051954      -0.00028543 
Cu     10.52249556      12.01755218      12.05088371       29       0.00125904       0.00198071       0.00408449 
Cu      8.08719153       9.38655270      11.74813418       29       0.00129138      -0.00074850       0.00351193 
Cu     10.23384133       5.66978640      12.05266248       29      -0.00361955       0.00054234      -0.00077313 
Cu      8.71175507      13.69369113      11.76075371       29      -0.00139017      -0.00229109      -0.00111992 
Cu      7.65604460       5.83188701      11.22850958       29       0.00020460       0.00081808      -0.00206223 
Cu      6.48226395      12.56588602      11.50734183       29      -0.00165018       0.00037598      -0.00097507 
Cu      4.60237023       8.86465497      11.23140120       29       0.00020030       0.00061559       0.00402376 
Cu      4.25805127      11.37062418      11.25274874       29       0.00222857       0.00074483      -0.00258494 
Cu      5.03958257       6.38271133      11.20218966       29       0.00306141      -0.00166202      -0.00051922 
Cu     10.37639558       9.83662022      10.89894682       29       0.00156882       0.00160572       0.00290456 
Cu      9.38366213       7.52820492      10.66724038       29      -0.00656715       0.00006947      -0.00041626 
Cu      8.56919474      11.52071741      10.52776675       29      -0.00123194       0.00739892       0.00257340 
Cu      6.34031257      10.39818724      10.29678817       29      -0.00341766       0.00080627       0.00404218 
Cu      6.69564042       7.91332421      10.22931041       29      -0.00043189      -0.00087172      -0.00257875 
Cu     12.68172913       8.95706735      10.29019422       29      -0.00212983      -0.00323030       0.00262154 
Cu     12.14161855      11.47171460      10.18026444       29       0.00144480       0.00040405       0.00139223 
Cu     11.67408123       6.68422340      10.12653599       29       0.00236701      -0.00017774      -0.00262824 
Cu     10.21491965      13.22568337       9.76923531       29      -0.00328807      -0.00180171       0.00132793 
Cu      9.82730692       5.00223555       9.75070363       29      -0.00119579      -0.00117433       0.00205267 
Cu      8.45432538       9.35842477       9.21062842       29      -0.00448155      -0.00034281      -0.00042357 
Cu      7.70290855      13.60171404       9.47599018       29       0.00188181       0.00183051       0.00099565 
Cu      7.82386511       4.10531306       8.57191057       29       0.00129780       0.00224189      -0.00097412 
Cu      5.34229103      12.46220495       9.26597835       29      -0.00343475      -0.00001594       0.00473808 
Cu      4.53361908       7.69989865       8.97000768       29       0.00211496       0.00346207       0.00193639 
Cu      5.87526121       5.58688266       9.05300844       29       0.00100216      -0.00332238      -0.00288308 
Cu     10.70352759       8.58128620       8.84707184       29       0.00452866      -0.00065287      -0.00568936 
Cu     10.24826241      11.04214631       8.69904495       29       0.00274000      -0.00113489       0.00197909 
Cu     12.18101741       4.91506782       8.55113516       29       0.00607690       0.00146010      -0.00241119 
Cu      8.12900888       6.56818977       8.84437371       29       0.00275025       0.00051110       0.00446148 
Cu      7.40213616      11.43820092       8.30149485       29       0.00646564       0.00010106       0.00014138 
Cu      6.29007200       9.21678325       8.13362576       29       0.00351282       0.00380013      -0.00328855 
Cu      9.74044845      10.26961565       2.58778483       29       0.00424194       0.00065807      -0.00263958 
Cu      8.15335654       8.30443649       2.64857870       29      -0.00018589      -0.00146860       0.00005125 
Cu     10.70058815       8.00803579       3.15239213       29      -0.00211128      -0.00215789      -0.00417014 
Cu      6.59932577       6.35781792       2.77709390       29      -0.00260545      -0.00070655      -0.00127013 
Cu      9.09026073       6.03523693       3.20447788       29      -0.00263341      -0.00081973       0.00025908 
Cu     11.56359029       5.73933341       3.69189458       29       0.00193350       0.00296568      -0.00025756 
Cu      7.43449396      10.52124955       3.59491594       29      -0.00228391      -0.00136327       0.00253780 
Cu      5.82124114       8.51194613       3.80061300       29       0.00022690      -0.00540312       0.00289302 
Cu     11.50309906      10.06977077       4.38681551       29       0.00224142      -0.00193455      -0.00008048 
Cu      9.51083994      11.67793161       4.65513416       29       0.00443216      -0.00070942       0.00042685 
Cu      9.19014912       9.15712936       4.73358141       29       0.00057815      -0.00178032       0.00722319 
Cu     12.43524792       7.69064204       5.06172185       29       0.00236098       0.00168563      -0.00428645 
Cu      7.64943620       7.21694174       4.88688138       29      -0.00325879      -0.00027317      -0.00373142 
Cu      7.32873022       4.74232930       4.51370771       29      -0.00229477       0.00051515       0.00096711 
Cu      5.15756048      10.72045124       4.67455075       29      -0.00196262      -0.00452959       0.00098618 
Cu      9.85963409       4.41324285       4.97410749       29      -0.00247483       0.00179430       0.00004552 
Cu     10.09287927       6.90688477       5.34439897       29      -0.00281670       0.00044164      -0.00150356 
Cu      5.32708212       6.33956177       4.97124361       29      -0.00224640       0.00246368       0.00028895 
Cu      7.25162546      11.91292976       5.67640767       29      -0.00307685      -0.00250942      -0.00093187 
Cu      6.92872623       9.43612407       5.81779125       29      -0.00184508      -0.00162884       0.00002066 
Cu     12.54378963      10.08099246       8.06642195       29       0.00036466       0.00026191      -0.00112088 
Cu     11.92844676       5.43020314       6.14513787       29       0.00120697      -0.00151223      -0.00183510 
Cu      4.63155418       8.62180930       6.30357454       29       0.00072490       0.00146163       0.00184437 
Cu     11.22050331      11.53507782       6.47001851       29       0.00210323       0.00065506      -0.00283772 
Cu     10.96261720       8.97975317       6.50401586       29      -0.00346831       0.00031549       0.00323835 
Cu      8.97396535      10.48291658       6.75670862       29      -0.00466339      -0.00410942      -0.00128475 
Cu      8.66991114       8.11261552       7.06076700       29       0.00568325       0.00475625      -0.00134238 
Cu      9.11659254      12.91747913       7.33619057       29       0.00080036      -0.00127357       0.00152498 
Cu      8.38213064       5.57443890       6.60365249       29      -0.00004831      -0.00525899      -0.00318241 
Cu      8.09686497       3.12436242       6.26995865       29       0.00230937       0.00271813      -0.00080187 
Cu      6.41245717       7.05403671       7.08979765       29       0.00158135      -0.00333058      -0.00123261 
Cu     12.63273056       7.44027603       7.72613685       29       0.00194212       0.00089114       0.00388041 
Cu      6.08722985       4.59242453       6.72103533       29       0.00052378       0.00261251      -0.00093530 
Cu      5.25953709      11.19961978       7.05623698       29      -0.00297213       0.00122855      -0.00497352 
Cu      6.49467110      13.52432534       7.32005342       29       0.00085203       0.00216583      -0.00294778 
Cu      4.13632441       6.13495703       7.14034804       29       0.00092771       0.00000133       0.00432747 
Cu     10.38337444       6.44449461       7.79762578       29       0.00397976       0.00514399       0.00385879 
Cu     10.14585294       3.98832732       7.43768717       29      -0.00085025      -0.00380512      -0.00471579 
Cu      4.16899465      10.16715120       9.04394320       29      -0.00104534       0.00132239      -0.00126970 
