247
Lattice="16.8180535453 0.0 0.0 0.0 16.8180535453 0.0 0.0 0.0 16.8180535453" Properties=species:S:1:pos:R:3:forces:R:3:tags:I:1:initial_charges:R:1 energy=-234.638474161 pbc="F F F"
Cu       7.71653760       9.35666148      14.23026872       0.00147211       0.00153132      -0.00144814        1       0.00000000
Cu      10.00827300       9.81319640      13.35257497       0.00101975      -0.00202338       0.00040349        1       0.00000000
Cu       8.90589434       7.46301649      13.09966801      -0.00364035      -0.00417633      -0.00069689        1       0.00000000
Cu       8.21564028      11.54526877      13.02271246      -0.00082991       0.00354372      -0.00006336        1       0.00000000
Cu       5.98494392      10.34584419      12.75597321      -0.00527466       0.00000662      -0.00407552        1       0.00000000
Cu       6.44385567       7.78367578      12.69679495      -0.00457844       0.00346036       0.00477225        1       0.00000000
Cu      12.30433718      10.27128364      12.39727657      -0.00089093      -0.00264925       0.00091153        1       0.00000000
Cu      11.29808111       7.95437124      12.25682455       0.00339319      -0.00051954      -0.00028543        1       0.00000000
Cu      10.52249556      12.01755218      12.05088371       0.00125904       0.00198071       0.00408449        1       0.00000000
Cu       8.08719153       9.38655270      11.74813418       0.00129138      -0.00074850       0.00351193        0       0.00000000
Cu      10.23384133       5.66978640      12.05266248      -0.00361955       0.00054234      -0.00077313        1       0.00000000
Cu       8.71175507      13.69369113      11.76075371      -0.00139017      -0.00229109      -0.00111992        1       0.00000000
Cu       7.65604460       5.83188701      11.22850958       0.00020460       0.00081808      -0.00206223        1       0.00000000
Cu       6.48226395      12.56588602      11.50734183      -0.00165018       0.00037598      -0.00097507        1       0.00000000
Cu       4.60237023       8.86465497      11.23140120       0.00020030       0.00061559       0.00402376        1       0.00000000
Cu       4.25805127      11.37062418      11.25274874       0.00222857       0.00074483      -0.00258494        1       0.00000000
Cu       5.03958257       6.38271133      11.20218966       0.00306141      -0.00166202      -0.00051922        1       0.00000000
Cu      10.37639558       9.83662022      10.89894682       0.00156882       0.00160572       0.00290456        0       0.00000000
Cu       9.38366213       7.52820492      10.66724038      -0.00656715       0.00006947      -0.00041626        0       0.00000000
Cu       8.56919474      11.52071741      10.52776675      -0.00123194       0.00739892       0.00257340        0       0.00000000
Cu       6.34031257      10.39818724      10.29678817      -0.00341766       0.00080627       0.00404218        0       0.00000000
Cu       6.69564042       7.91332421      10.22931041      -0.00043189      -0.00087172      -0.00257875        0       0.00000000
Cu      12.68172913       8.95706735      10.29019422      -0.00212983      -0.00323030       0.00262154        1       0.00000000
Cu      12.14161855      11.47171460      10.18026444       0.00144480       0.00040405       0.00139223        1       0.00000000
Cu      11.67408123       6.68422340      10.12653599       0.00236701      -0.00017774      -0.00262824        1       0.00000000
Cu      10.21491965      13.22568337       9.76923531      -0.00328807      -0.00180171       0.00132793        1       0.00000000
Cu       9.82730692       5.00223555       9.75070363      -0.00119579      -0.00117433       0.00205267        1       0.00000000
Cu       8.45432538       9.35842477       9.21062842      -0.00448155      -0.00034281      -0.00042357        0       0.00000000
Cu       7.70290855      13.60171404       9.47599018       0.00188181       0.00183051       0.00099565        1       0.00000000
Cu       7.82386511       4.10531306       8.57191057       0.00129780       0.00224189      -0.00097412        1       0.00000000
Cu       5.34229103      12.46220495       9.26597835      -0.00343475      -0.00001594       0.00473808        1       0.00000000
Cu       4.53361908       7.69989865       8.97000768       0.00211496       0.00346207       0.00193639        1       0.00000000
Cu       5.87526121       5.58688266       9.05300844       0.00100216      -0.00332238      -0.00288308        1       0.00000000
Cu      10.70352759       8.58128620       8.84707184       0.00452866      -0.00065287      -0.00568936        0       0.00000000
Cu      10.24826241      11.04214631       8.69904495       0.00274000      -0.00113489       0.00197909        1       0.00000000
Cu      12.18101741       4.91506782       8.55113516       0.00607690       0.00146010      -0.00241119        1       0.00000000
Cu       8.12900888       6.56818977       8.84437371       0.00275025       0.00051110       0.00446148        0       0.00000000
Cu       7.40213616      11.43820092       8.30149485       0.00646564       0.00010106       0.00014138        0       0.00000000
Cu       6.29007200       9.21678325       8.13362576       0.00351282       0.00380013      -0.00328855        0       0.00000000
Cu       9.74044845      10.26961565       2.58778483       0.00424194       0.00065807      -0.00263958        1       0.00000000
Cu       8.15335654       8.30443649       2.64857870      -0.00018589      -0.00146860       0.00005125        1       0.00000000
Cu      10.70058815       8.00803579       3.15239213      -0.00211128      -0.00215789      -0.00417014        1       0.00000000
Cu       6.59932577       6.35781792       2.77709390      -0.00260545      -0.00070655      -0.00127013        1       0.00000000
Cu       9.09026073       6.03523693       3.20447788      -0.00263341      -0.00081973       0.00025908        1       0.00000000
Cu      11.56359029       5.73933341       3.69189458       0.00193350       0.00296568      -0.00025756        1       0.00000000
Cu       7.43449396      10.52124955       3.59491594      -0.00228391      -0.00136327       0.00253780        1       0.00000000
Cu       5.82124114       8.51194613       3.80061300       0.00022690      -0.00540312       0.00289302        1       0.00000000
Cu      11.50309906      10.06977077       4.38681551       0.00224142      -0.00193455      -0.00008048        1       0.00000000
Cu       9.51083994      11.67793161       4.65513416       0.00443216      -0.00070942       0.00042685        1       0.00000000
Cu       9.19014912       9.15712936       4.73358141       0.00057815      -0.00178032       0.00722319        0       0.00000000
Cu      12.43524792       7.69064204       5.06172185       0.00236098       0.00168563      -0.00428645        1       0.00000000
Cu       7.64943620       7.21694174       4.88688138      -0.00325879      -0.00027317      -0.00373142        0       0.00000000
Cu       7.32873022       4.74232930       4.51370771      -0.00229477       0.00051515       0.00096711        1       0.00000000
Cu       5.15756048      10.72045124       4.67455075      -0.00196262      -0.00452959       0.00098618        1       0.00000000
Cu       9.85963409       4.41324285       4.97410749      -0.00247483       0.00179430       0.00004552        1       0.00000000
Cu      10.09287927       6.90688477       5.34439897      -0.00281670       0.00044164      -0.00150356        0       0.00000000
Cu       5.32708212       6.33956177       4.97124361      -0.00224640       0.00246368       0.00028895        1       0.00000000
Cu       7.25162546      11.91292976       5.67640767      -0.00307685      -0.00250942      -0.00093187        1       0.00000000
Cu       6.92872623       9.43612407       5.81779125      -0.00184508      -0.00162884       0.00002066        0       0.00000000
Cu      12.54378963      10.08099246       8.06642195       0.00036466       0.00026191      -0.00112088        1       0.00000000
Cu      11.92844676       5.43020314       6.14513787       0.00120697      -0.00151223      -0.00183510        1       0.00000000
Cu       4.63155418       8.62180930       6.30357454       0.00072490       0.00146163       0.00184437        1       0.00000000
Cu      11.22050331      11.53507782       6.47001851       0.00210323       0.00065506      -0.00283772        1       0.00000000
Cu      10.96261720       8.97975317       6.50401586      -0.00346831       0.00031549       0.00323835        1       0.00000000
Cu       8.97396535      10.48291658       6.75670862      -0.00466339      -0.00410942      -0.00128475        0       0.00000000
Cu       8.66991114       8.11261552       7.06076700       0.00568325       0.00475625      -0.00134238        0       0.00000000
Cu       9.11659254      12.91747913       7.33619057       0.00080036      -0.00127357       0.00152498        1       0.00000000
Cu       8.38213064       5.57443890       6.60365249      -0.00004831      -0.00525899      -0.00318241        0       0.00000000
Cu       8.09686497       3.12436242       6.26995865       0.00230937       0.00271813      -0.00080187        1       0.00000000
Cu       6.41245717       7.05403671       7.08979765       0.00158135      -0.00333058      -0.00123261        0       0.00000000
Cu      12.63273056       7.44027603       7.72613685       0.00194212       0.00089114       0.00388041        1       0.00000000
Cu       6.08722985       4.59242453       6.72103533       0.00052378       0.00261251      -0.00093530        1       0.00000000
Cu       5.25953709      11.19961978       7.05623698      -0.00297213       0.00122855      -0.00497352        1       0.00000000
Cu       6.49467110      13.52432534       7.32005342       0.00085203       0.00216583      -0.00294778        1       0.00000000
Cu       4.13632441       6.13495703       7.14034804       0.00092771       0.00000133       0.00432747        1       0.00000000
Cu      10.38337444       6.44449461       7.79762578       0.00397976       0.00514399       0.00385879        0       0.00000000
Cu      10.14585294       3.98832732       7.43768717      -0.00085025      -0.00380512      -0.00471579        1       0.00000000
Cu       4.16899465      10.16715120       9.04394320      -0.00104534       0.00132239      -0.00126970        1       0.00000000
H        9.28021940       9.73885366      14.96468147       0.00000000       0.00000000       0.00000000        2       1.00000000
H        8.46515406       7.84513045      14.77498753       0.00000000       0.00000000       0.00000000        2       2.00000000
H        7.89909463      11.06742135      14.71762954       0.00000000       0.00000000       0.00000000        2       3.00000000
H        6.16599968      10.15220163      14.50071458       0.00000000       0.00000000       0.00000000        2       4.00000000
H        6.47061082       8.09916892      14.45424357       0.00000000       0.00000000       0.00000000        2       5.00000000
H        9.75810439       8.36920449      14.41483567       0.00000000       0.00000000       0.00000000        2       6.00000000
H        9.33375500      11.12796165      14.33848977       0.00000000       0.00000000       0.00000000        2       7.00000000
H       11.60343429      10.22170782      14.03375868       0.00000000       0.00000000       0.00000000        2       8.00000000
H       11.28689561       8.69504533      13.87136927       0.00000000       0.00000000       0.00000000        2       9.00000000
H       10.74151283      11.42161905      13.74708520       0.00000000       0.00000000       0.00000000        2      10.00000000
H        7.42369622       7.08229070      14.00276612       0.00000000       0.00000000       0.00000000        2      11.00000000
H       10.56896109       7.31832818      13.77610583       0.00000000       0.00000000       0.00000000        2      12.00000000
H        9.71703770       6.02055764      13.69645697       0.00000000       0.00000000       0.00000000        2      13.00000000
H        8.07158480       5.78706949      13.05456210       0.00000000       0.00000000       0.00000000        2      14.00000000
H        6.69191169      11.46818729      13.95485817       0.00000000       0.00000000       0.00000000        2      15.00000000
H        9.65068451      12.47662131      13.54308652       0.00000000       0.00000000       0.00000000        2      16.00000000
H        8.41176418      13.26413844      13.46724618       0.00000000       0.00000000       0.00000000        2      17.00000000
H        7.00495424      12.83699108      13.18485789       0.00000000       0.00000000       0.00000000        2      18.00000000
H        5.52996182       8.91828818      13.76854065       0.00000000       0.00000000       0.00000000        2      19.00000000
H        5.64875730      12.09698566      13.03860370       0.00000000       0.00000000       0.00000000        2      20.00000000
H        4.36099226       9.61180772      12.83349436       0.00000000       0.00000000       0.00000000        2      21.00000000
H        4.43521338      11.17364316      13.00658267       0.00000000       0.00000000       0.00000000        2      22.00000000
H        6.74646158       5.96089513      12.83861737       0.00000000       0.00000000       0.00000000        2      23.00000000
H        4.67590757       8.09892396      12.86262603       0.00000000       0.00000000       0.00000000        2      24.00000000
H        5.13473096       6.62553664      12.94793505       0.00000000       0.00000000       0.00000000        2      25.00000000
H       12.57213744       8.72384860      13.23780341       0.00000000       0.00000000       0.00000000        2      26.00000000
H       12.00511592      11.90637736      13.02678126       0.00000000       0.00000000       0.00000000        2      27.00000000
H       13.71459965       9.52801499      11.61759308       0.00000000       0.00000000       0.00000000        2      28.00000000
H       13.24365987      11.54214176      11.57789713       0.00000000       0.00000000       0.00000000        2      29.00000000
H       11.48340267       6.39325476      13.09550162       0.00000000       0.00000000       0.00000000        2      30.00000000
H       13.05102682       8.23218764      11.90622752       0.00000000       0.00000000       0.00000000        2      31.00000000
H       12.46147399       6.72928803      11.71640234       0.00000000       0.00000000       0.00000000        2      32.00000000
H       10.20622985      13.63036491      12.69795382       0.00000000       0.00000000       0.00000000        2      33.00000000
H       12.16941619      12.53891692      11.60870106       0.00000000       0.00000000       0.00000000        2      34.00000000
H       10.99726321      13.61475123      11.35125897       0.00000000       0.00000000       0.00000000        2      35.00000000
H        8.63887697       4.81193329      12.41599231       0.00000000       0.00000000       0.00000000        2      36.00000000
H       11.96224544       5.56931001      11.52491596       0.00000000       0.00000000       0.00000000        2      37.00000000
H       10.34135608       4.15538411      11.19065246       0.00000000       0.00000000       0.00000000        2      38.00000000
H        7.05785187      14.04839341      12.29764120       0.00000000       0.00000000       0.00000000        2      39.00000000
H       10.00569888      14.58188742      10.91172027       0.00000000       0.00000000       0.00000000        2      40.00000000
H        8.00429299      14.88536375      10.65930014       0.00000000       0.00000000       0.00000000        2      41.00000000
H        6.13799906       5.15239961      12.00297376       0.00000000       0.00000000       0.00000000        2      42.00000000
H        8.75481481       4.33050697      11.11914160       0.00000000       0.00000000       0.00000000        2      43.00000000
H        7.48398906       3.92902760      10.55944663       0.00000000       0.00000000       0.00000000        2      44.00000000
H        6.25949495       4.68902526      10.67017418       0.00000000       0.00000000       0.00000000        2      45.00000000
H        4.80993867      12.86539145      12.05562748       0.00000000       0.00000000       0.00000000        2      46.00000000
H        6.69740848      14.22444498      10.83599343       0.00000000       0.00000000       0.00000000        2      47.00000000
H        5.20413154      13.50121324      10.70138473       0.00000000       0.00000000       0.00000000        2      48.00000000
H        3.36051374       9.96617584      11.88077251       0.00000000       0.00000000       0.00000000        2      49.00000000
H        3.77930139       7.43175533      11.89000656       0.00000000       0.00000000       0.00000000        2      50.00000000
H        3.36485756       7.98129986      10.29300294       0.00000000       0.00000000       0.00000000        2      51.00000000
H        3.16632420       9.59443359      10.42618090       0.00000000       0.00000000       0.00000000        2      52.00000000
H        3.96027585      12.84735445      10.31364587       0.00000000       0.00000000       0.00000000        2      53.00000000
H        2.98085326      10.99281601      10.07734159       0.00000000       0.00000000       0.00000000        2      54.00000000
H        3.57489505       6.72601969      10.17590837       0.00000000       0.00000000       0.00000000        2      55.00000000
H        4.75354638       4.95212613      10.23786874       0.00000000       0.00000000       0.00000000        2      56.00000000
H       13.60157668      10.48319477      10.53206105       0.00000000       0.00000000       0.00000000        2      57.00000000
H       13.23597447       7.31965146      10.66050701       0.00000000       0.00000000       0.00000000        2      58.00000000
H       13.84393289       9.75815011       9.22305803       0.00000000       0.00000000       0.00000000        2      59.00000000
H       13.89816584       8.01932984       9.09077824       0.00000000       0.00000000       0.00000000        2      60.00000000
H       11.98938433      13.28634479      10.17371680       0.00000000       0.00000000       0.00000000        2      61.00000000
H       11.54033409      12.22628181       8.72208695       0.00000000       0.00000000       0.00000000        2      62.00000000
H       13.49914319      11.25500984       9.02905615       0.00000000       0.00000000       0.00000000        2      63.00000000
H       11.44242272       4.95853365      10.49888080       0.00000000       0.00000000       0.00000000        2      64.00000000
H       12.86374688       5.40872762      10.07676868       0.00000000       0.00000000       0.00000000        2      65.00000000
H       13.29668833       6.66174629       9.25652687       0.00000000       0.00000000       0.00000000        2      66.00000000
H        9.13576372      14.65426925       9.69938264       0.00000000       0.00000000       0.00000000        2      67.00000000
H       11.28223603      12.45102198       8.62713296       0.00000000       0.00000000       0.00000000        2      68.00000000
H       10.02641748      14.23379689       8.24325105       0.00000000       0.00000000       0.00000000        2      69.00000000
H        9.00905485       3.43505631       9.69966751       0.00000000       0.00000000       0.00000000        2      70.00000000
H       11.28092433       3.90141401       9.76841218       0.00000000       0.00000000       0.00000000        2      71.00000000
H       10.32672765       3.40648856       9.11761029       0.00000000       0.00000000       0.00000000        2      72.00000000
H        5.96976199      14.14698850       9.53574412       0.00000000       0.00000000       0.00000000        2      73.00000000
H        8.60202613      14.47255052       8.14574629       0.00000000       0.00000000       0.00000000        2      74.00000000
H        6.89138335      14.79858050       8.46929851       0.00000000       0.00000000       0.00000000        2      75.00000000
H        6.19242560       3.85261485       9.20760749       0.00000000       0.00000000       0.00000000        2      76.00000000
H        7.71751076       2.47170218       7.87801642       0.00000000       0.00000000       0.00000000        2      77.00000000
H        6.46480386       3.20425513       7.80548389       0.00000000       0.00000000       0.00000000        2      78.00000000
H        9.05298266       2.82164213       8.27020600       0.00000000       0.00000000       0.00000000        2      79.00000000
H        4.30818395      12.51334469       7.80909429       0.00000000       0.00000000       0.00000000        2      80.00000000
H        5.12242510      13.96179170       8.34949556       0.00000000       0.00000000       0.00000000        2      81.00000000
H        3.63754189      11.88555616       9.16463449       0.00000000       0.00000000       0.00000000        2      82.00000000
H        4.16518768       5.99417044       9.28238193       0.00000000       0.00000000       0.00000000        2      83.00000000
H        3.33082316       8.08639312       7.56492581       0.00000000       0.00000000       0.00000000        2      84.00000000
H        3.14862566       6.77100985       8.43618088       0.00000000       0.00000000       0.00000000        2      85.00000000
H        3.11402064       8.74823529       9.10584394       0.00000000       0.00000000       0.00000000        2      86.00000000
H        5.20524981       4.15864349       8.21282638       0.00000000       0.00000000       0.00000000        2      87.00000000
H        4.25176255       4.95104395       8.52009050       0.00000000       0.00000000       0.00000000        2      88.00000000
H       11.88459160      11.71765617       8.39116366       0.00000000       0.00000000       0.00000000        2      89.00000000
H       11.40577260      12.22424055       8.08155055       0.00000000       0.00000000       0.00000000        2      90.00000000
H       11.64644344      10.66089679       7.32964128       0.00000000       0.00000000       0.00000000        2      91.00000000
H       10.72021534      12.67936310       8.11491927       0.00000000       0.00000000       0.00000000        2      92.00000000
H       13.00983022       4.40287744       7.08360719       0.00000000       0.00000000       0.00000000        2      93.00000000
H       13.64117406       5.94884028       8.11664011       0.00000000       0.00000000       0.00000000        2      94.00000000
H       11.67556447       3.30613665       8.01308886       0.00000000       0.00000000       0.00000000        2      95.00000000
H        8.85143634       9.32635902       1.36744162       0.00000000       0.00000000       0.00000000        2      96.00000000
H       10.80569267       9.11095912       1.76020961       0.00000000       0.00000000       0.00000000        2      97.00000000
H        8.21483752      11.03283474       2.07648136       0.00000000       0.00000000       0.00000000        2      98.00000000
H       11.47158897      10.66647819       2.70873342       0.00000000       0.00000000       0.00000000        2      99.00000000
H        9.90788182      11.99803063       2.95371141       0.00000000       0.00000000       0.00000000        2     100.00000000
H        9.66325231       8.09374451       1.66921156       0.00000000       0.00000000       0.00000000        2     101.00000000
H        7.24278559       7.35437242       1.46527547       0.00000000       0.00000000       0.00000000        2     102.00000000
H        8.67675997       6.89295609       1.70368863       0.00000000       0.00000000       0.00000000        2     103.00000000
H        7.48538138       9.80421446       1.96994625       0.00000000       0.00000000       0.00000000        2     104.00000000
H        6.44226070       8.52504635       2.09976235       0.00000000       0.00000000       0.00000000        2     105.00000000
H       10.23530727       6.71338317       2.01023123       0.00000000       0.00000000       0.00000000        2     106.00000000
H       11.73174057       6.83888126       2.32033890       0.00000000       0.00000000       0.00000000        2     107.00000000
H       11.91688174       9.27521043       2.84488548       0.00000000       0.00000000       0.00000000        2     108.00000000
H       12.49492678       7.82552266       3.26080999       0.00000000       0.00000000       0.00000000        2     109.00000000
H        7.95698263       5.60774225       1.88813990       0.00000000       0.00000000       0.00000000        2     110.00000000
H        5.38627585       7.58041938       2.35365961       0.00000000       0.00000000       0.00000000        2     111.00000000
H        6.60629845       4.59871227       2.90944050       0.00000000       0.00000000       0.00000000        2     112.00000000
H        4.97953774       5.82363690       3.29827843       0.00000000       0.00000000       0.00000000        2     113.00000000
H       10.47448034       5.30173242       2.34802807       0.00000000       0.00000000       0.00000000        2     114.00000000
H        8.12406797       4.55723097       2.92289416       0.00000000       0.00000000       0.00000000        2     115.00000000
H        9.68654889       4.35952687       3.20467752       0.00000000       0.00000000       0.00000000        2     116.00000000
H       13.10973689       6.62351486       3.79901654       0.00000000       0.00000000       0.00000000        2     117.00000000
H       11.05989728       4.03793389       3.72030261       0.00000000       0.00000000       0.00000000        2     118.00000000
H       12.71525826       4.82500200       4.67760750       0.00000000       0.00000000       0.00000000        2     119.00000000
H        6.07310397       9.85194685       2.62280618       0.00000000       0.00000000       0.00000000        2     120.00000000
H        8.44911777      11.97037585       3.22090530       0.00000000       0.00000000       0.00000000        2     121.00000000
H        5.86624103      11.21973190       3.11896757       0.00000000       0.00000000       0.00000000        2     122.00000000
H        7.01266031      12.20952672       3.94229689       0.00000000       0.00000000       0.00000000        2     123.00000000
H        4.67497189       9.74629161       3.29182855       0.00000000       0.00000000       0.00000000        2     124.00000000
H        4.62229880       7.21601827       3.59484919       0.00000000       0.00000000       0.00000000        2     125.00000000
H        4.09295736       8.58950425       4.51191378       0.00000000       0.00000000       0.00000000        2     126.00000000
H       11.07301896      11.70087354       3.76476426       0.00000000       0.00000000       0.00000000        2     127.00000000
H       13.00297752       9.09220597       4.04380971       0.00000000       0.00000000       0.00000000        2     128.00000000
H       12.23566909      11.59059419       4.99195308       0.00000000       0.00000000       0.00000000        2     129.00000000
H       12.44872964       9.52889935       5.75440177       0.00000000       0.00000000       0.00000000        2     130.00000000
H        8.18388192      12.83359495       4.48886936       0.00000000       0.00000000       0.00000000        2     131.00000000
H       11.01220394      12.53909228       5.02661082       0.00000000       0.00000000       0.00000000        2     132.00000000
H        9.59247634      13.42485548       5.51530805       0.00000000       0.00000000       0.00000000        2     133.00000000
H       13.28252475       6.11717417       5.19327129       0.00000000       0.00000000       0.00000000        2     134.00000000
H       12.57903579       9.22309951       5.88250100       0.00000000       0.00000000       0.00000000        2     135.00000000
H       13.77420457       7.40176233       6.28610055       0.00000000       0.00000000       0.00000000        2     136.00000000
H        8.60113669       3.57499711       3.98893439       0.00000000       0.00000000       0.00000000        2     137.00000000
H        5.57577696       4.78920152       4.07527064       0.00000000       0.00000000       0.00000000        2     138.00000000
H        7.36910396       2.97401681       4.65938552       0.00000000       0.00000000       0.00000000        2     139.00000000
H        6.06580369       3.67790190       5.18872232       0.00000000       0.00000000       0.00000000        2     140.00000000
H        5.90266924      12.36544617       4.55549345       0.00000000       0.00000000       0.00000000        2     141.00000000
H        3.69916899       9.67372312       5.10502007       0.00000000       0.00000000       0.00000000        2     142.00000000
H        4.21026774      11.71191289       5.75543968       0.00000000       0.00000000       0.00000000        2     143.00000000
H       11.59988113       3.97447710       5.13499825       0.00000000       0.00000000       0.00000000        2     144.00000000
H        9.29554736       2.71936184       5.01119961       0.00000000       0.00000000       0.00000000        2     145.00000000
H       10.47112622       3.06378349       5.95516964       0.00000000       0.00000000       0.00000000        2     146.00000000
H        3.82789946       7.41953959       5.14023443       0.00000000       0.00000000       0.00000000        2     147.00000000
H        4.87726229       4.64416131       5.38604175       0.00000000       0.00000000       0.00000000        2     148.00000000
H        3.75630910       5.70691817       5.47089309       0.00000000       0.00000000       0.00000000        2     149.00000000