136
Lattice="16.8180535453 0.0 0.0 0.0 16.8180535453 0.0 0.0 0.0 16.8180535453" Properties=species:S:1:pos:R:3:forces:R:3:tags:I:1:initial_charges:R:1 energy=-234.638474161 pbc="F F F"
Cu       7.71653760       9.35666148      14.23026872       0.00147211       0.00153132      -0.00144814        1       0.00000000
Cu      10.00827300       9.81319640      13.35257497       0.00101975      -0.00202338       0.00040349        1       0.00000000
Cu       8.90589434       7.46301649      13.09966801      -0.00364035      -0.00417633      -0.00069689        1       0.00000000
Cu       8.21564028      11.54526877      13.02271246      -0.00082991       0.00354372      -0.00006336        1       0.00000000
Cu       5.98494392      10.34584419      12.75597321      -0.00527466       0.00000662      -0.00407552        1       0.00000000
Cu       6.44385567       7.78367578      12.69679495      -0.00457844       0.00346036       0.00477225        1       0.00000000
Cu      12.30433718      10.27128364      12.39727657      -0.00089093      -0.00264925       0.00091153        1       0.00000000
Cu      11.29808111       7.95437124      12.25682455       0.00339319      -0.00051954      -0.00028543        1       0.00000000
Cu      10.52249556      12.01755218      12.05088371       0.00125904       0.00198071       0.00408449        1       0.00000000
Cu       8.08719153       9.38655270      11.74813418       0.00129138      -0.00074850       0.00351193        0       0.00000000
Cu      10.23384133       5.66978640      12.05266248      -0.00361955       0.00054234      -0.00077313        1       0.00000000
Cu       8.71175507      13.69369113      11.76075371      -0.00139017      -0.00229109      -0.00111992        1       0.00000000
Cu       7.65604460       5.83188701      11.22850958       0.00020460       0.00081808      -0.00206223        1       0.00000000
Cu       6.48226395      12.56588602      11.50734183      -0.00165018       0.00037598      -0.00097507        1       0.00000000
Cu       4.60237023       8.86465497      11.23140120       0.00020030       0.00061559       0.00402376        1       0.00000000
Cu       4.25805127      11.37062418      11.25274874       0.00222857       0.00074483      -0.00258494        1       0.00000000
Cu       5.03958257       6.38271133      11.20218966       0.00306141      -0.00166202      -0.00051922        1       0.00000000
Cu      10.37639558       9.83662022      10.89894682       0.00156882       0.00160572       0.00290456        0       0.00000000
Cu       9.38366213       7.52820492      10.66724038      -0.00656715       0.00006947      -0.00041626        0       0.00000000
Cu       8.56919474      11.52071741      10.52776675      -0.00123194       0.00739892       0.00257340        0       0.00000000
Cu       6.34031257      10.39818724      10.29678817      -0.00341766       0.00080627       0.00404218        0       0.00000000
Cu       6.69564042       7.91332421      10.22931041      -0.00043189      -0.00087172      -0.00257875        0       0.00000000
Cu      12.68172913       8.95706735      10.29019422      -0.00212983      -0.00323030       0.00262154        1       0.00000000
Cu      12.14161855      11.47171460      10.18026444       0.00144480       0.00040405       0.00139223        1       0.00000000
Cu      11.67408123       6.68422340      10.12653599       0.00236701      -0.00017774      -0.00262824        1       0.00000000
Cu      10.21491965      13.22568337       9.76923531      -0.00328807      -0.00180171       0.00132793        1       0.00000000
Cu       9.82730692       5.00223555       9.75070363      -0.00119579      -0.00117433       0.00205267        1       0.00000000
Cu       8.45432538       9.35842477       9.21062842      -0.00448155      -0.00034281      -0.00042357        0       0.00000000
Cu       7.70290855      13.60171404       9.47599018       0.00188181       0.00183051       0.00099565        1       0.00000000
Cu       7.82386511       4.10531306       8.57191057       0.00129780       0.00224189      -0.00097412        1       0.00000000
Cu       5.34229103      12.46220495       9.26597835      -0.00343475      -0.00001594       0.00473808        1       0.00000000
Cu       4.53361908       7.69989865       8.97000768       0.00211496       0.00346207       0.00193639        1       0.00000000
Cu       5.87526121       5.58688266       9.05300844       0.00100216      -0.00332238      -0.00288308        1       0.00000000
Cu      10.70352759       8.58128620       8.84707184       0.00452866      -0.00065287      -0.00568936        0       0.00000000
Cu      10.24826241      11.04214631       8.69904495       0.00274000      -0.00113489       0.00197909        1       0.00000000
Cu      12.18101741       4.91506782       8.55113516       0.00607690       0.00146010      -0.00241119        1       0.00000000
Cu       8.12900888       6.56818977       8.84437371       0.00275025       0.00051110       0.00446148        0       0.00000000
Cu       7.40213616      11.43820092       8.30149485       0.00646564       0.00010106       0.00014138        0       0.00000000
Cu       6.29007200       9.21678325       8.13362576       0.00351282       0.00380013      -0.00328855        0       0.00000000
Cu       9.74044845      10.26961565       2.58778483       0.00424194       0.00065807      -0.00263958        1       0.00000000
Cu       8.15335654       8.30443649       2.64857870      -0.00018589      -0.00146860       0.00005125        1       0.00000000
Cu      10.70058815       8.00803579       3.15239213      -0.00211128      -0.00215789      -0.00417014        1       0.00000000
Cu       6.59932577       6.35781792       2.77709390      -0.00260545      -0.00070655      -0.00127013        1       0.00000000
Cu       9.09026073       6.03523693       3.20447788      -0.00263341      -0.00081973       0.00025908        1       0.00000000
Cu      11.56359029       5.73933341       3.69189458       0.00193350       0.00296568      -0.00025756        1       0.00000000
Cu       7.43449396      10.52124955       3.59491594      -0.00228391      -0.00136327       0.00253780        1       0.00000000
Cu       5.82124114       8.51194613       3.80061300       0.00022690      -0.00540312       0.00289302        1       0.00000000
Cu      11.50309906      10.06977077       4.38681551       0.00224142      -0.00193455      -0.00008048        1       0.00000000
Cu       9.51083994      11.67793161       4.65513416       0.00443216      -0.00070942       0.00042685        1       0.00000000
Cu       9.19014912       9.15712936       4.73358141       0.00057815      -0.00178032       0.00722319        0       0.00000000
Cu      12.43524792       7.69064204       5.06172185       0.00236098       0.00168563      -0.00428645        1       0.00000000
Cu       7.64943620       7.21694174       4.88688138      -0.00325879      -0.00027317      -0.00373142        0       0.00000000
Cu       7.32873022       4.74232930       4.51370771      -0.00229477       0.00051515       0.00096711        1       0.00000000
Cu       5.15756048      10.72045124       4.67455075      -0.00196262      -0.00452959       0.00098618        1       0.00000000
Cu       9.85963409       4.41324285       4.97410749      -0.00247483       0.00179430       0.00004552        1       0.00000000
Cu      10.09287927       6.90688477       5.34439897      -0.00281670       0.00044164      -0.00150356        0       0.00000000
Cu       5.32708212       6.33956177       4.97124361      -0.00224640       0.00246368       0.00028895        1       0.00000000
Cu       7.25162546      11.91292976       5.67640767      -0.00307685      -0.00250942      -0.00093187        1       0.00000000
Cu       6.92872623       9.43612407       5.81779125      -0.00184508      -0.00162884       0.00002066        0       0.00000000
Cu      12.54378963      10.08099246       8.06642195       0.00036466       0.00026191      -0.00112088        1       0.00000000
Cu      11.92844676       5.43020314       6.14513787       0.00120697      -0.00151223      -0.00183510        1       0.00000000
Cu       4.63155418       8.62180930       6.30357454       0.00072490       0.00146163       0.00184437        1       0.00000000
Cu      11.22050331      11.53507782       6.47001851       0.00210323       0.00065506      -0.00283772        1       0.00000000
Cu      10.96261720       8.97975317       6.50401586      -0.00346831       0.00031549       0.00323835        1       0.00000000
Cu       8.97396535      10.48291658       6.75670862      -0.00466339      -0.00410942      -0.00128475        0       0.00000000
Cu       8.66991114       8.11261552       7.06076700       0.00568325       0.00475625      -0.00134238        0       0.00000000
Cu       9.11659254      12.91747913       7.33619057       0.00080036      -0.00127357       0.00152498        1       0.00000000
Cu       8.38213064       5.57443890       6.60365249      -0.00004831      -0.00525899      -0.00318241        0       0.00000000
Cu       8.09686497       3.12436242       6.26995865       0.00230937       0.00271813      -0.00080187        1       0.00000000
Cu       6.41245717       7.05403671       7.08979765       0.00158135      -0.00333058      -0.00123261        0       0.00000000
Cu      12.63273056       7.44027603       7.72613685       0.00194212       0.00089114       0.00388041        1       0.00000000
Cu       6.08722985       4.59242453       6.72103533       0.00052378       0.00261251      -0.00093530        1       0.00000000
Cu       5.25953709      11.19961978       7.05623698      -0.00297213       0.00122855      -0.00497352        1       0.00000000
Cu       6.49467110      13.52432534       7.32005342       0.00085203       0.00216583      -0.00294778        1       0.00000000
Cu       4.13632441       6.13495703       7.14034804       0.00092771       0.00000133       0.00432747        1       0.00000000
Cu      10.38337444       6.44449461       7.79762578       0.00397976       0.00514399       0.00385879        0       0.00000000
Cu      10.14585294       3.98832732       7.43768717      -0.00085025      -0.00380512      -0.00471579        1       0.00000000
Cu       4.16899465      10.16715120       9.04394320      -0.00104534       0.00132239      -0.00126970        1       0.00000000
H        7.53756169       9.38211781      15.47717668       0.00000000       0.00000000       0.00000000        2       1.00000000
H       10.43381052       9.97809774      14.52696759       0.00000000       0.00000000       0.00000000        2       2.00000000
H        9.01362392       6.96063361      14.25020514       0.00000000       0.00000000       0.00000000        2       3.00000000
H        8.15723464      12.18501350      14.10653882       0.00000000       0.00000000       0.00000000        2       4.00000000
H        5.31016886      10.64647247      13.77666202       0.00000000       0.00000000       0.00000000        2       5.00000000
H        5.88186956       7.36278246      13.74311510       0.00000000       0.00000000       0.00000000        2       6.00000000
H       13.23049904      10.55193630      13.20412090       0.00000000       0.00000000       0.00000000        2       7.00000000
H       12.08007474       7.62204476      13.18725507       0.00000000       0.00000000       0.00000000        2       8.00000000
H       11.10515313      12.80210689      12.84618880       0.00000000       0.00000000       0.00000000        2       9.00000000
H       10.64302514       4.84711106      12.91478511       0.00000000       0.00000000       0.00000000        2      10.00000000
H        8.79468319      14.77765747      12.39762513       0.00000000       0.00000000       0.00000000        2      11.00000000
H        7.39896521       4.88850249      12.02316927       0.00000000       0.00000000       0.00000000        2      12.00000000
H        5.95318800      13.48941901      12.18161408       0.00000000       0.00000000       0.00000000        2      13.00000000
H        3.52995088       8.76727333      11.88573219       0.00000000       0.00000000       0.00000000        2      14.00000000
H        3.25429692      11.89422186      11.80580090       0.00000000       0.00000000       0.00000000        2      15.00000000
H        4.19291591       5.72268102      11.86174121       0.00000000       0.00000000       0.00000000        2      16.00000000
H       13.88465240       8.94098460      10.66503737       0.00000000       0.00000000       0.00000000        2      17.00000000
H       13.15402073      12.17570543      10.43975909       0.00000000       0.00000000       0.00000000        2      18.00000000
H       12.66130739       6.11206169      10.66077521       0.00000000       0.00000000       0.00000000        2      19.00000000
H       10.76930470      14.34878239       9.90816647       0.00000000       0.00000000       0.00000000        2      20.00000000
H       10.15176988       3.90179239      10.27145235       0.00000000       0.00000000       0.00000000        2      21.00000000
H        7.53851695      14.84524783       9.59559571       0.00000000       0.00000000       0.00000000        2      22.00000000
H        7.59514478       2.91279537       8.90867923       0.00000000       0.00000000       0.00000000        2      23.00000000
H        4.49282162      13.38768943       9.36359713       0.00000000       0.00000000       0.00000000        2      24.00000000
H        3.32081515       7.41309679       9.15507221       0.00000000       0.00000000       0.00000000        2      25.00000000
H        5.11058401       4.64160719       9.38334243       0.00000000       0.00000000       0.00000000        2      26.00000000
H       11.08162651      11.98031745       8.58076542       0.00000000       0.00000000       0.00000000        2      27.00000000
H       13.09424445       4.06942510       8.74702868       0.00000000       0.00000000       0.00000000        2      28.00000000
H       10.03584679      10.75074964       1.46137965       0.00000000       0.00000000       0.00000000        2      29.00000000
H        8.03186392       8.32898419       1.39474089       0.00000000       0.00000000       0.00000000        2      30.00000000
H       11.30479492       7.96316560       2.04765357       0.00000000       0.00000000       0.00000000        2      31.00000000
H        6.10849468       5.91366254       1.70505354       0.00000000       0.00000000       0.00000000        2      32.00000000
H        9.22850147       5.44457453       2.10022631       0.00000000       0.00000000       0.00000000        2      33.00000000
H       12.29437544       5.16223197       2.84314692       0.00000000       0.00000000       0.00000000        2      34.00000000
H        7.10710604      11.13728100       2.54564110       0.00000000       0.00000000       0.00000000        2      35.00000000
H        5.01859197       8.58061703       2.83171253       0.00000000       0.00000000       0.00000000        2      36.00000000
H       12.38939353      10.55046625       3.63096350       0.00000000       0.00000000       0.00000000        2      37.00000000
H        9.80991149      12.63116911       3.88722533       0.00000000       0.00000000       0.00000000        2      38.00000000
H       13.55346539       7.61052652       4.48624953       0.00000000       0.00000000       0.00000000        2      39.00000000
H        6.97013201       3.79588802       3.76326806       0.00000000       0.00000000       0.00000000        2      40.00000000
H        4.29657460      11.26158174       3.93066724       0.00000000       0.00000000       0.00000000        2      41.00000000
H       10.21189579       3.37866089       4.34718678       0.00000000       0.00000000       0.00000000        2      42.00000000
H        4.38360930       5.81943358       4.31772192       0.00000000       0.00000000       0.00000000        2      43.00000000
H        6.93738972      12.90529135       4.96656989       0.00000000       0.00000000       0.00000000        2      44.00000000
H       13.73007646      10.48632865       7.94044683       0.00000000       0.00000000       0.00000000        2      45.00000000
H       12.88905100       4.68300167       5.81858548       0.00000000       0.00000000       0.00000000        2      46.00000000
H        3.44366189       8.66417501       5.88564358       0.00000000       0.00000000       0.00000000        2      47.00000000
H       12.05413341      12.38998676       6.06797990       0.00000000       0.00000000       0.00000000        2      48.00000000
H       12.11819940       9.28272114       6.10215874       0.00000000       0.00000000       0.00000000        2      49.00000000
H        9.40490013      14.09359365       6.98805610       0.00000000       0.00000000       0.00000000        2      50.00000000
H        7.97277742       1.89723704       6.01245221       0.00000000       0.00000000       0.00000000        2      51.00000000
H       13.87170959       7.21684084       7.67541202       0.00000000       0.00000000       0.00000000        2      52.00000000
H        5.36957387       3.57369195       6.53430048       0.00000000       0.00000000       0.00000000        2      53.00000000
H        4.25186373      11.87429862       6.71442749       0.00000000       0.00000000       0.00000000        2      54.00000000
H        6.04130553      14.65686202       7.00495069       0.00000000       0.00000000       0.00000000        2      55.00000000
H        3.01915253       5.57146022       6.99238986       0.00000000       0.00000000       0.00000000        2      56.00000000
H       10.58629467       2.80783712       7.44784684       0.00000000       0.00000000       0.00000000        2      57.00000000
H        2.94252503      10.45294424       9.08775749       0.00000000       0.00000000       0.00000000        2      58.00000000
