  82  82   0   0
  0.1336942E+03  0.2054540E-08  0.2256933E-08  0.2364248E-08  0.0000000E+00
  1.000000000000000E-004
  CAR 
 Cu78_Adsorbate_Calc_see_submitSL        
      2.35210692    -27.90225372  301     -3.73337362      1.00000000
    -27.902  0.0000E+00  0.0000E+00
    -27.801  0.0000E+00  0.0000E+00
    -27.701  0.0000E+00  0.0000E+00
    -27.600  0.0000E+00  0.0000E+00
    -27.499  0.0000E+00  0.0000E+00
    -27.398  0.1636E-05  0.1650E-06
    -27.297  0.2847E-05  0.4521E-06
    -27.196  0.7797E-05  0.1238E-05
    -27.095  0.2131E-04  0.3388E-05
    -26.995  0.5796E-04  0.9233E-05
    -26.894  0.1555E-03  0.2491E-04
    -26.793  0.4020E-03  0.6545E-04
    -26.692  0.9482E-03  0.1611E-03
    -26.591  0.1822E-02  0.3448E-03
    -26.490  0.2438E-02  0.5907E-03
    -26.390  0.2058E-02  0.7982E-03
    -26.289  0.1164E-02  0.9156E-03
    -26.188  0.5145E-03  0.9675E-03
    -26.087  0.2025E-03  0.9879E-03
    -25.986  0.7601E-04  0.9955E-03
    -25.885  0.2802E-04  0.9984E-03
    -25.784  0.1026E-04  0.9994E-03
    -25.684  0.0000E+00  0.1000E-02
    -25.583  0.0000E+00  0.1000E-02
    -25.482  0.0000E+00  0.1000E-02
    -25.381  0.0000E+00  0.1000E-02
    -25.280  0.1727E-05  0.1000E-02
    -25.179  0.3007E-05  0.1000E-02
    -25.079  0.8233E-05  0.1001E-02
    -24.978  0.2250E-04  0.1004E-02
    -24.877  0.6116E-04  0.1010E-02
    -24.776  0.1639E-03  0.1026E-02
    -24.675  0.4224E-03  0.1069E-02
    -24.574  0.9887E-03  0.1169E-02
    -24.473  0.1871E-02  0.1357E-02
    -24.373  0.2444E-02  0.1604E-02
    -24.272  0.2014E-02  0.1807E-02
    -24.171  0.1119E-02  0.1920E-02
    -24.070  0.4902E-03  0.1969E-02
    -23.969  0.1922E-03  0.1989E-02
    -23.868  0.7204E-04  0.1996E-02
    -23.767  0.2654E-04  0.1998E-02
    -23.667  0.9718E-05  0.1999E-02
    -23.566  0.0000E+00  0.2000E-02
    -23.465  0.0000E+00  0.2000E-02
    -23.364  0.0000E+00  0.2000E-02
    -23.263  0.0000E+00  0.2000E-02
    -23.162  0.0000E+00  0.2000E-02
    -23.062  0.0000E+00  0.2000E-02
    -22.961  0.0000E+00  0.2000E-02
    -22.860  0.0000E+00  0.2000E-02
    -22.759  0.0000E+00  0.2000E-02
    -22.658  0.0000E+00  0.2000E-02
    -22.557  0.0000E+00  0.2000E-02
    -22.456  0.0000E+00  0.2000E-02
    -22.356  0.0000E+00  0.2000E-02
    -22.255  0.0000E+00  0.2000E-02
    -22.154  0.0000E+00  0.2000E-02
    -22.053  0.0000E+00  0.2000E-02
    -21.952  0.0000E+00  0.2000E-02
    -21.851  0.0000E+00  0.2000E-02
    -21.751  0.0000E+00  0.2000E-02
    -21.650  0.0000E+00  0.2000E-02
    -21.549  0.0000E+00  0.2000E-02
    -21.448  0.0000E+00  0.2000E-02
    -21.347  0.0000E+00  0.2000E-02
    -21.246  0.0000E+00  0.2000E-02
    -21.145  0.0000E+00  0.2000E-02
    -21.045  0.0000E+00  0.2000E-02
    -20.944  0.0000E+00  0.2000E-02
    -20.843  0.0000E+00  0.2000E-02
    -20.742  0.0000E+00  0.2000E-02
    -20.641  0.0000E+00  0.2000E-02
    -20.540  0.0000E+00  0.2000E-02
    -20.440  0.0000E+00  0.2000E-02
    -20.339  0.0000E+00  0.2000E-02
    -20.238  0.0000E+00  0.2000E-02
    -20.137  0.0000E+00  0.2000E-02
    -20.036  0.0000E+00  0.2000E-02
    -19.935  0.0000E+00  0.2000E-02
    -19.834  0.0000E+00  0.2000E-02
    -19.734  0.0000E+00  0.2000E-02
    -19.633  0.0000E+00  0.2000E-02
    -19.532  0.0000E+00  0.2000E-02
    -19.431  0.0000E+00  0.2000E-02
    -19.330  0.0000E+00  0.2000E-02
    -19.229  0.0000E+00  0.2000E-02
    -19.128  0.0000E+00  0.2000E-02
    -19.028  0.0000E+00  0.2000E-02
    -18.927  0.0000E+00  0.2000E-02
    -18.826  0.0000E+00  0.2000E-02
    -18.725  0.0000E+00  0.2000E-02
    -18.624  0.0000E+00  0.2000E-02
    -18.523  0.0000E+00  0.2000E-02
    -18.423  0.0000E+00  0.2000E-02
    -18.322  0.0000E+00  0.2000E-02
    -18.221  0.0000E+00  0.2000E-02
    -18.120  0.0000E+00  0.2000E-02
    -18.019  0.0000E+00  0.2000E-02
    -17.918  0.0000E+00  0.2000E-02
    -17.817  0.0000E+00  0.2000E-02
    -17.717  0.0000E+00  0.2000E-02
    -17.616  0.0000E+00  0.2000E-02
    -17.515  0.0000E+00  0.2000E-02
    -17.414  0.0000E+00  0.2000E-02
    -17.313  0.0000E+00  0.2000E-02
    -17.212  0.0000E+00  0.2000E-02
    -17.112  0.0000E+00  0.2000E-02
    -17.011  0.0000E+00  0.2000E-02
    -16.910  0.0000E+00  0.2000E-02
    -16.809  0.0000E+00  0.2000E-02
    -16.708  0.0000E+00  0.2000E-02
    -16.607  0.0000E+00  0.2000E-02
    -16.506  0.0000E+00  0.2000E-02
    -16.406  0.0000E+00  0.2000E-02
    -16.305  0.0000E+00  0.2000E-02
    -16.204  0.0000E+00  0.2000E-02
    -16.103  0.0000E+00  0.2000E-02
    -16.002  0.0000E+00  0.2000E-02
    -15.901  0.0000E+00  0.2000E-02
    -15.801  0.0000E+00  0.2000E-02
    -15.700  0.0000E+00  0.2000E-02
    -15.599  0.0000E+00  0.2000E-02
    -15.498  0.0000E+00  0.2000E-02
    -15.397  0.0000E+00  0.2000E-02
    -15.296  0.0000E+00  0.2000E-02
    -15.195  0.2705E-05  0.2000E-02
    -15.095  0.4706E-05  0.2001E-02
    -14.994  0.1288E-04  0.2002E-02
    -14.893  0.3514E-04  0.2006E-02
    -14.792  0.9506E-04  0.2015E-02
    -14.691  0.2514E-03  0.2041E-02
    -14.590  0.6273E-03  0.2104E-02
    -14.489  0.1360E-02  0.2241E-02
    -14.389  0.2225E-02  0.2465E-02
    -14.288  0.2373E-02  0.2705E-02
    -14.187  0.1614E-02  0.2867E-02
    -14.086  0.7911E-03  0.2947E-02
    -13.985  0.3261E-03  0.2980E-02
    -13.884  0.1246E-03  0.2993E-02
    -13.784  0.4627E-04  0.2997E-02
    -13.683  0.1699E-04  0.2999E-02
    -13.582  0.6211E-05  0.3000E-02
    -13.481  0.0000E+00  0.3000E-02
    -13.380  0.0000E+00  0.3000E-02
    -13.279  0.0000E+00  0.3000E-02
    -13.178  0.0000E+00  0.3000E-02
    -13.078  0.0000E+00  0.3000E-02
    -12.977  0.0000E+00  0.3000E-02
    -12.876  0.0000E+00  0.3000E-02
    -12.775  0.2719E-05  0.3000E-02
    -12.674  0.4731E-05  0.3001E-02
    -12.573  0.1295E-04  0.3002E-02
    -12.473  0.3532E-04  0.3006E-02
    -12.372  0.9554E-04  0.3015E-02
    -12.271  0.2527E-03  0.3041E-02
    -12.170  0.6324E-03  0.3105E-02
    -12.069  0.1369E-02  0.3243E-02
    -11.968  0.2240E-02  0.3468E-02
    -11.867  0.2402E-02  0.3711E-02
    -11.767  0.1696E-02  0.3882E-02
    -11.666  0.1018E-02  0.3984E-02
    -11.565  0.9068E-03  0.4076E-02
    -11.464  0.1423E-02  0.4219E-02
    -11.363  0.2308E-02  0.4452E-02
    -11.262  0.2757E-02  0.4730E-02
    -11.162  0.2572E-02  0.4990E-02
    -11.061  0.2829E-02  0.5275E-02
    -10.960  0.4156E-02  0.5694E-02
    -10.859  0.5786E-02  0.6278E-02
    -10.758  0.6464E-02  0.6930E-02
    -10.657  0.5648E-02  0.7499E-02
    -10.556  0.4259E-02  0.7929E-02
    -10.456  0.3995E-02  0.8332E-02
    -10.355  0.5319E-02  0.8869E-02
    -10.254  0.6981E-02  0.9573E-02
    -10.153  0.7603E-02  0.1034E-01
    -10.052  0.7044E-02  0.1105E-01
     -9.951  0.5790E-02  0.1163E-01
     -9.850  0.4884E-02  0.1213E-01
     -9.750  0.5467E-02  0.1268E-01
     -9.649  0.7092E-02  0.1339E-01
     -9.548  0.8451E-02  0.1425E-01
     -9.447  0.9744E-02  0.1523E-01
     -9.346  0.1130E-01  0.1637E-01
     -9.245  0.1184E-01  0.1756E-01
     -9.145  0.1056E-01  0.1863E-01
     -9.044  0.9242E-02  0.1956E-01
     -8.943  0.8977E-02  0.2047E-01
     -8.842  0.9095E-02  0.2139E-01
     -8.741  0.1000E-01  0.2239E-01
     -8.640  0.1228E-01  0.2363E-01
     -8.539  0.1592E-01  0.2524E-01
     -8.439  0.2132E-01  0.2739E-01
     -8.338  0.2937E-01  0.3035E-01
     -8.237  0.3844E-01  0.3423E-01
     -8.136  0.4417E-01  0.3868E-01
     -8.035  0.4607E-01  0.4333E-01
     -7.934  0.4827E-01  0.4820E-01
     -7.834  0.5230E-01  0.5347E-01
     -7.733  0.5611E-01  0.5913E-01
     -7.632  0.5932E-01  0.6512E-01
     -7.531  0.6451E-01  0.7162E-01
     -7.430  0.7166E-01  0.7885E-01
     -7.329  0.7649E-01  0.8657E-01
     -7.228  0.7869E-01  0.9451E-01
     -7.128  0.8141E-01  0.1027E+00
     -7.027  0.8771E-01  0.1116E+00
     -6.926  0.9916E-01  0.1216E+00
     -6.825  0.1132E+00  0.1330E+00
     -6.724  0.1259E+00  0.1457E+00
     -6.623  0.1347E+00  0.1593E+00
     -6.523  0.1385E+00  0.1732E+00
     -6.422  0.1381E+00  0.1872E+00
     -6.321  0.1385E+00  0.2011E+00
     -6.220  0.1443E+00  0.2157E+00
     -6.119  0.1525E+00  0.2311E+00
     -6.018  0.1584E+00  0.2471E+00
     -5.917  0.1631E+00  0.2635E+00
     -5.817  0.1715E+00  0.2808E+00
     -5.716  0.1880E+00  0.2998E+00
     -5.615  0.2079E+00  0.3208E+00
     -5.514  0.2208E+00  0.3431E+00
     -5.413  0.2197E+00  0.3652E+00
     -5.312  0.1978E+00  0.3852E+00
     -5.211  0.1531E+00  0.4006E+00
     -5.111  0.1007E+00  0.4108E+00
     -5.010  0.5955E-01  0.4168E+00
     -4.909  0.3503E-01  0.4203E+00
     -4.808  0.2261E-01  0.4226E+00
     -4.707  0.1639E-01  0.4243E+00
     -4.606  0.1381E-01  0.4257E+00
     -4.506  0.1385E-01  0.4271E+00
     -4.405  0.1502E-01  0.4286E+00
     -4.304  0.1592E-01  0.4303E+00
     -4.203  0.1541E-01  0.4318E+00
     -4.102  0.1363E-01  0.4332E+00
     -4.001  0.1221E-01  0.4344E+00
     -3.900  0.1188E-01  0.4356E+00
     -3.800  0.1162E-01  0.4368E+00
     -3.699  0.1047E-01  0.4378E+00
     -3.598  0.9538E-02  0.4388E+00
     -3.497  0.9503E-02  0.4398E+00
     -3.396  0.1024E-01  0.4408E+00
     -3.295  0.1159E-01  0.4420E+00
     -3.195  0.1258E-01  0.4432E+00
     -3.094  0.1367E-01  0.4446E+00
     -2.993  0.1552E-01  0.4462E+00
     -2.892  0.1772E-01  0.4480E+00
     -2.791  0.1986E-01  0.4500E+00
     -2.690  0.2099E-01  0.4521E+00
     -2.589  0.2059E-01  0.4542E+00
     -2.489  0.1829E-01  0.4560E+00
     -2.388  0.1545E-01  0.4576E+00
     -2.287  0.1449E-01  0.4590E+00
     -2.186  0.1538E-01  0.4606E+00
     -2.085  0.1619E-01  0.4622E+00
     -1.984  0.1584E-01  0.4638E+00
     -1.884  0.1498E-01  0.4653E+00
     -1.783  0.1426E-01  0.4668E+00
     -1.682  0.1423E-01  0.4682E+00
     -1.581  0.1515E-01  0.4697E+00
     -1.480  0.1718E-01  0.4715E+00
     -1.379  0.1984E-01  0.4735E+00
     -1.278  0.2102E-01  0.4756E+00
     -1.178  0.2058E-01  0.4777E+00
     -1.077  0.1986E-01  0.4797E+00
     -0.976  0.1876E-01  0.4816E+00
     -0.875  0.1663E-01  0.4832E+00
     -0.774  0.1484E-01  0.4847E+00
     -0.673  0.1479E-01  0.4862E+00
     -0.572  0.1517E-01  0.4878E+00
     -0.472  0.1449E-01  0.4892E+00
     -0.371  0.1342E-01  0.4906E+00
     -0.270  0.1291E-01  0.4919E+00
     -0.169  0.1272E-01  0.4932E+00
     -0.068  0.1327E-01  0.4945E+00
      0.033  0.1474E-01  0.4960E+00
      0.133  0.1641E-01  0.4977E+00
      0.234  0.1827E-01  0.4995E+00
      0.335  0.2125E-01  0.5016E+00
      0.436  0.2577E-01  0.5042E+00
      0.537  0.3167E-01  0.5074E+00
      0.638  0.3796E-01  0.5113E+00
      0.739  0.4233E-01  0.5155E+00
      0.839  0.4219E-01  0.5198E+00
      0.940  0.3568E-01  0.5234E+00
      1.041  0.2401E-01  0.5258E+00
      1.142  0.1266E-01  0.5271E+00
      1.243  0.5535E-02  0.5276E+00
      1.344  0.2172E-02  0.5279E+00
      1.444  0.7978E-03  0.5280E+00
      1.545  0.2749E-03  0.5280E+00
      1.646  0.8164E-04  0.5280E+00
      1.747  0.1378E-04  0.5280E+00
      1.848  0.0000E+00  0.5280E+00
      1.949  0.0000E+00  0.5280E+00
      2.050  0.0000E+00  0.5280E+00
      2.150  0.0000E+00  0.5280E+00
      2.251  0.0000E+00  0.5280E+00
      2.352  0.0000E+00  0.5280E+00
