   82   82 2000    1
  0.1336942E+03  0.2054540E-08  0.2256933E-08  0.2364248E-08  0.0000000E+00
  1.000000000000000E-004
  CAR 
 Cu78_Adsorbate_Calc_see_submitSL        
    875      1    528
 
  0.1262379E-14  0.1262379E-14  0.1262379E-14  0.1000000E+01
    1      -26.527056
    2      -24.414696
    3      -14.374757
    4      -11.954923
    5      -11.337225
    6      -10.935551
    7      -10.812008
    8      -10.726165
    9      -10.344346
   10      -10.260796
   11      -10.146814
   12      -10.028333
   13       -9.704867
   14       -9.641370
   15       -9.490698
   16       -9.371225
   17       -9.324901
   18       -9.269399
   19       -9.235665
   20       -9.015772
   21       -8.967483
   22       -8.811219
   23       -8.677121
   24       -8.614863
   25       -8.539106
   26       -8.485631
   27       -8.403389
   28       -8.370722
   29       -8.313483
   30       -8.292016
   31       -8.273180
   32       -8.263158
   33       -8.252061
   34       -8.238729
   35       -8.220150
   36       -8.203572
   37       -8.184544
   38       -8.168982
   39       -8.138861
   40       -8.132517
   41       -8.112994
   42       -8.097067
   43       -8.055091
   44       -8.006014
   45       -7.991802
   46       -7.978589
   47       -7.937154
   48       -7.926655
   49       -7.901146
   50       -7.897689
   51       -7.877989
   52       -7.851807
   53       -7.835348
   54       -7.815694
   55       -7.803217
   56       -7.798491
   57       -7.772253
   58       -7.751427
   59       -7.739607
   60       -7.726454
   61       -7.706162
   62       -7.694515
   63       -7.682402
   64       -7.665236
   65       -7.629217
   66       -7.628262
   67       -7.578339
   68       -7.547072
   69       -7.537200
   70       -7.517607
   71       -7.515802
   72       -7.502230
   73       -7.495038
   74       -7.484326
   75       -7.471295
   76       -7.456217
   77       -7.450115
   78       -7.435707
   79       -7.427126
   80       -7.419493
   81       -7.401931
   82       -7.395966
   83       -7.393583
   84       -7.379174
   85       -7.365247
   86       -7.353388
   87       -7.323550
   88       -7.313756
   89       -7.295949
   90       -7.288216
   91       -7.270721
   92       -7.258951
   93       -7.255124
   94       -7.231638
   95       -7.220881
   96       -7.210691
   97       -7.207426
   98       -7.195005
   99       -7.181640
  100       -7.170659
  101       -7.147786
  102       -7.140044
  103       -7.116860
  104       -7.112260
  105       -7.083499
  106       -7.067185
  107       -7.061084
  108       -7.053899
  109       -7.050424
  110       -7.043740
  111       -7.004012
  112       -6.988653
  113       -6.972308
  114       -6.971178
  115       -6.958645
  116       -6.953192
  117       -6.951269
  118       -6.940789
  119       -6.930319
  120       -6.924717
  121       -6.915390
  122       -6.912603
  123       -6.904476
  124       -6.884100
  125       -6.878534
  126       -6.866677
  127       -6.864302
  128       -6.855249
  129       -6.840873
  130       -6.831806
  131       -6.822837
  132       -6.817576
  133       -6.801450
  134       -6.799064
  135       -6.790654
  136       -6.783885
  137       -6.776536
  138       -6.773646
  139       -6.766477
  140       -6.761891
  141       -6.752796
  142       -6.743008
  143       -6.738305
  144       -6.734641
  145       -6.724106
  146       -6.721039
  147       -6.709220
  148       -6.689216
  149       -6.684092
  150       -6.680694
  151       -6.676927
  152       -6.674818
  153       -6.669777
  154       -6.665205
  155       -6.656481
  156       -6.654548
  157       -6.639546
  158       -6.635268
  159       -6.625778
  160       -6.617418
  161       -6.612256
  162       -6.593702
  163       -6.588186
  164       -6.587279
  165       -6.580234
  166       -6.575250
  167       -6.570937
  168       -6.558269
  169       -6.553248
  170       -6.548879
  171       -6.546019
  172       -6.539196
  173       -6.529551
  174       -6.522433
  175       -6.519241
  176       -6.512928
  177       -6.504855
  178       -6.503069
  179       -6.501923
  180       -6.490640
  181       -6.477408
  182       -6.472336
  183       -6.466995
  184       -6.450837
  185       -6.447212
  186       -6.442009
  187       -6.433532
  188       -6.431437
  189       -6.421266
  190       -6.408616
  191       -6.407560
  192       -6.395495
  193       -6.390296
  194       -6.372924
  195       -6.361474
  196       -6.353296
  197       -6.344169
  198       -6.325788
  199       -6.322034
  200       -6.317942
  201       -6.311912
  202       -6.308188
  203       -6.297853
  204       -6.292894
  205       -6.288946
  206       -6.285050
  207       -6.274059
  208       -6.253382
  209       -6.250990
  210       -6.243014
  211       -6.236702
  212       -6.230110
  213       -6.223644
  214       -6.221348
  215       -6.208474
  216       -6.199168
  217       -6.197189
  218       -6.195256
  219       -6.187636
  220       -6.186279
  221       -6.177853
  222       -6.174591
  223       -6.165607
  224       -6.160845
  225       -6.157755
  226       -6.150829
  227       -6.145062
  228       -6.141016
  229       -6.137363
  230       -6.130468
  231       -6.124669
  232       -6.111478
  233       -6.109127
  234       -6.097459
  235       -6.090449
  236       -6.085852
  237       -6.081505
  238       -6.076304
  239       -6.075608
  240       -6.066559
  241       -6.058983
  242       -6.045687
  243       -6.041360
  244       -6.033656
  245       -6.023017
  246       -6.020211
  247       -6.018409
  248       -6.013627
  249       -6.012515
  250       -6.007058
  251       -5.993984
  252       -5.988448
  253       -5.982760
  254       -5.976627
  255       -5.971400
  256       -5.959935
  257       -5.955195
  258       -5.949482
  259       -5.946329
  260       -5.939669
  261       -5.936238
  262       -5.927068
  263       -5.925249
  264       -5.915185
  265       -5.912628
  266       -5.903223
  267       -5.899491
  268       -5.890489
  269       -5.885944
  270       -5.880168
  271       -5.873036
  272       -5.868303
  273       -5.856776
  274       -5.849096
  275       -5.836127
  276       -5.826092
  277       -5.814462
  278       -5.810955
  279       -5.804567
  280       -5.797415
  281       -5.795535
  282       -5.786747
  283       -5.778022
  284       -5.774230
  285       -5.769585
  286       -5.765623
  287       -5.763736
  288       -5.757937
  289       -5.751894
  290       -5.742572
  291       -5.735138
  292       -5.730964
  293       -5.727412
  294       -5.722439
  295       -5.719681
  296       -5.712076
  297       -5.709382
  298       -5.703166
  299       -5.699916
  300       -5.696398
  301       -5.689839
  302       -5.685373
  303       -5.684381
  304       -5.679198
  305       -5.676976
  306       -5.669700
  307       -5.663612
  308       -5.662734
  309       -5.654914
  310       -5.652323
  311       -5.648068
  312       -5.639459
  313       -5.636576
  314       -5.632931
  315       -5.627468
  316       -5.620647
  317       -5.620127
  318       -5.615711
  319       -5.611499
  320       -5.604708
  321       -5.603024
  322       -5.601793
  323       -5.598578
  324       -5.593393
  325       -5.587790
  326       -5.585226
  327       -5.581667
  328       -5.579923
  329       -5.576049
  330       -5.571569
  331       -5.569061
  332       -5.564496
  333       -5.561444
  334       -5.556537
  335       -5.554174
  336       -5.550863
  337       -5.547333
  338       -5.540758
  339       -5.533735
  340       -5.531673
  341       -5.527018
  342       -5.524387
  343       -5.517693
  344       -5.517533
  345       -5.504211
  346       -5.501322
  347       -5.494363
  348       -5.491118
  349       -5.488380
  350       -5.478841
  351       -5.477035
  352       -5.473311
  353       -5.472327
  354       -5.467404
  355       -5.466749
  356       -5.459603
  357       -5.458472
  358       -5.451888
  359       -5.449557
  360       -5.439940
  361       -5.438114
  362       -5.435834
  363       -5.432594
  364       -5.426805
  365       -5.418870
  366       -5.415853
  367       -5.408555
  368       -5.406383
  369       -5.400300
  370       -5.398886
  371       -5.397172
  372       -5.393970
  373       -5.389038
  374       -5.385325
  375       -5.383159
  376       -5.379394
  377       -5.378376
  378       -5.376750
  379       -5.373454
  380       -5.364965
  381       -5.363993
  382       -5.362041
  383       -5.359360
  384       -5.355020
  385       -5.352049
  386       -5.346789
  387       -5.345975
  388       -5.339560
  389       -5.339023
  390       -5.337277
  391       -5.333750
  392       -5.332347
  393       -5.328327
  394       -5.326372
  395       -5.324163
  396       -5.317116
  397       -5.313670
  398       -5.307969
  399       -5.304691
  400       -5.299075
  401       -5.294478
  402       -5.285621
  403       -5.278483
  404       -5.272919
  405       -5.263054
  406       -5.261553
  407       -5.249459
  408       -5.232497
  409       -5.230122
  410       -5.221142
  411       -5.220097
  412       -5.213873
  413       -5.208223
  414       -5.194962
  415       -5.176173
  416       -5.161544
  417       -5.137086
  418       -5.106838
  419       -5.077334
  420       -5.056096
  421       -4.965944
  422       -4.922232
  423       -4.864845
  424       -4.806027
  425       -4.741533
  426       -4.595299
  427       -4.522587
  428       -4.481579
  429       -4.383235
  430       -4.336039
  431       -4.290347
  432       -4.268237
  433       -4.192285
  434       -4.100352
  435       -3.986548
  436       -3.887179
  437       -3.822990
  438       -3.809698
  439       -3.606805
  440       -3.544160
  441       -3.355000
  442       -3.327438
  443       -3.280297
  444       -3.150128
  445       -3.054380
  446       -3.031879
  447       -2.964450
  448       -2.866915
  449       -2.827524
  450       -2.825172
  451       -2.765735
  452       -2.732782
  453       -2.644790
  454       -2.624672
  455       -2.586486
  456       -2.573445
  457       -2.533395
  458       -2.405353
  459       -2.295651
  460       -2.224968
  461       -2.180901
  462       -2.120026
  463       -2.092124
  464       -2.030658
  465       -1.918015
  466       -1.904005
  467       -1.819718
  468       -1.692627
  469       -1.672221
  470       -1.590540
  471       -1.475252
  472       -1.430333
  473       -1.393017
  474       -1.376371
  475       -1.366517
  476       -1.302524
  477       -1.224474
  478       -1.206797
  479       -1.140011
  480       -1.071767
  481       -1.035030
  482       -1.000018
  483       -0.971703
  484       -0.907553
  485       -0.775349
  486       -0.685761
  487       -0.654001
  488       -0.583847
  489       -0.565089
  490       -0.482284
  491       -0.342754
  492       -0.329276
  493       -0.230295
  494       -0.135616
  495       -0.019481
  496        0.006569
  497        0.082801
  498        0.117437
  499        0.208070
  500        0.264287
  501        0.311850
  502        0.371826
  503        0.390035
  504        0.465571
  505        0.479568
  506        0.498532
  507        0.566882
  508        0.572228
  509        0.605755
  510        0.612662
  511        0.631623
  512        0.672052
  513        0.680544
  514        0.707993
  515        0.710889
  516        0.741428
  517        0.757125
  518        0.784573
  519        0.799601
  520        0.822064
  521        0.839622
  522        0.861593
  523        0.872822
  524        0.879337
  525        0.896755
  526        0.919455
  527        0.950385
  528        0.976909
