 running on   12 total cores
 distrk:  each k-point on   12 cores,    1 groups
 distr:  one band on    1 cores,   12 groups
 using from now: INCAR     
 vasp.5.3.5 31Mar14 (build Aug 14 2018 04:06:59) complex                        
  
 POSCAR found type information on POSCAR  Cu O  C  O  H 
 POSCAR found :  5 types and      82 ions
 scaLAPACK will be used

 ----------------------------------------------------------------------------- 
|                                                                             |
|           W    W    AA    RRRRR   N    N  II  N    N   GGGG   !!!           |
|           W    W   A  A   R    R  NN   N  II  NN   N  G    G  !!!           |
|           W    W  A    A  R    R  N N  N  II  N N  N  G       !!!           |
|           W WW W  AAAAAA  RRRRR   N  N N  II  N  N N  G  GGG   !            |
|           WW  WW  A    A  R   R   N   NN  II  N   NN  G    G                |
|           W    W  A    A  R    R  N    N  II  N    N   GGGG   !!!           |
|                                                                             |
|      For optimal performance we recommend to set                            |
|        NCORE= 4 - approx SQRT( number of cores)                             |
|      NCORE specifies how many cores store one orbital (NPAR=cpu/NCORE).     |
|      This setting can  greatly improve the performance of VASP for DFT.     |
|      The default, NPAR=number of cores might be grossly inefficient         |
|      on modern multi-core architectures or massively parallel machines.     |
|      Do your own testing !!!!                                               |
|      Unfortunately you need to use the default for GW and RPA calculations. |
|      (for HF NCORE is supported but not extensively tested yet)             |
|                                                                             |
 ----------------------------------------------------------------------------- 


     **************************************************************************
     Initializing libbeef V0.1.2 with the BEEF-vdW functional.
     Citation: Wellendorff et al., PRB 85, 235149 (2012).
     **************************************************************************


 ----------------------------------------------------------------------------- 
|                                                                             |
|  ADVICE TO THIS USER RUNNING 'VASP/VAMP'   (HEAR YOUR MASTER'S VOICE ...):  |
|                                                                             |
|      You have switched on vdW-DFT.                                          |
|      This routine was written and supplied by Jiri Klimes.                  |
|      We recommed that you carefully read and cite the following             |
|      publication                                                            |
|      J. Klimes, D.R. Bowler, A. Michelides                                  |
|        J. Phys.: Cond Matt. 22 022201 (2010)                                |
|      J. Klimes, D.R. Bowler, A. Michelides                                  |
|        Phys. Rev. B. 83, 195131 (2011)                                      |
|      and references therein.                                                |
|                                                                             |
 ----------------------------------------------------------------------------- 


 ----------------------------------------------------------------------------- 
|                                                                             |
|  ADVICE TO THIS USER RUNNING 'VASP/VAMP'   (HEAR YOUR MASTER'S VOICE ...):  |
|                                                                             |
|      You enforced a specific xc-type in the INCAR file,                     |
|      a different type was found on the POTCAR file                          |
|          I HOPE YOU KNOW, WHAT YOU ARE  DOING                               |
|                                                                             |
 ----------------------------------------------------------------------------- 

 LDA part: xc-table for Pade appr. of Perdew
 POSCAR found type information on POSCAR  Cu O  C  O  H 
 POSCAR found :  5 types and      82 ions
 POSCAR, INCAR and KPOINTS ok, starting setup
 WARNING: small aliasing (wrap around) errors must be expected
 FFT: planning ...
 WAVECAR not read
 entering main loop
       N       E                     dE             d eps       ncg     rms          rms(c)
Total vdW correction in eV:    175.5255762
RMM:   1     0.860938931945E+04    0.86094E+04   -0.18895E+05   528   0.832E+02
RMM:   2     0.311315620953E+04   -0.54962E+04   -0.61168E+04   528   0.285E+02
RMM:   3     0.143181817889E+04   -0.16813E+04   -0.22126E+04   528   0.176E+02
RMM:   4     0.406061380413E+03   -0.10258E+04   -0.93065E+03   528   0.107E+02
RMM:   5     0.934318883697E+02   -0.31263E+03   -0.26362E+03   528   0.691E+01
RMM:   6    -0.556674253807E+02   -0.14910E+03   -0.91242E+02   528   0.344E+01
RMM:   7    -0.110175780551E+03   -0.54508E+02   -0.32815E+02   528   0.200E+01
RMM:   8    -0.127963808451E+03   -0.17788E+02   -0.10580E+02   528   0.109E+01
RMM:   9    -0.133917034326E+03   -0.59532E+01   -0.49596E+01  1138   0.584E+00
RMM:  10    -0.134728268314E+03   -0.81123E+00   -0.79478E+00  1498   0.256E+00
RMM:  11    -0.134814212505E+03   -0.85944E-01   -0.10764E+00  1736   0.943E-01
RMM:  12    -0.134854494976E+03   -0.40282E-01   -0.31037E-01  1827   0.403E-01    0.353E+01
Total vdW correction in eV:    172.0400548
RMM:  13    -0.113833733244E+03    0.21021E+02   -0.24549E+02  1058   0.391E+01    0.143E+01
Total vdW correction in eV:    172.5410435
RMM:  14    -0.105491279510E+03    0.83425E+01   -0.43562E+01  1061   0.176E+01    0.673E+00
Total vdW correction in eV:    172.0150119
RMM:  15    -0.104676852160E+03    0.81443E+00   -0.23614E+00  1068   0.293E+00    0.386E+00
Total vdW correction in eV:    171.7992440
RMM:  16    -0.104425139419E+03    0.25171E+00   -0.11107E+00  1064   0.251E+00    0.255E+00
Total vdW correction in eV:    171.5519233
RMM:  17    -0.104252302022E+03    0.17284E+00   -0.39689E-01  1064   0.130E+00    0.713E-01
Total vdW correction in eV:    171.5325649
RMM:  18    -0.104238520376E+03    0.13782E-01   -0.68332E-02  1066   0.572E-01    0.441E-01
Total vdW correction in eV:    171.5308776
RMM:  19    -0.104232484343E+03    0.60360E-02   -0.16954E-02  1064   0.230E-01    0.221E-01
Total vdW correction in eV:    171.5366408
RMM:  20    -0.104235270602E+03   -0.27863E-02   -0.77571E-03  1063   0.175E-01    0.177E-01
Total vdW correction in eV:    171.5407965
RMM:  21    -0.104238459036E+03   -0.31884E-02   -0.26871E-03  1065   0.112E-01    0.921E-02
Total vdW correction in eV:    171.5511534
RMM:  22    -0.104248157822E+03   -0.96988E-02   -0.41412E-03  1060   0.873E-02    0.809E-02
Total vdW correction in eV:    171.5573346
RMM:  23    -0.104252988116E+03   -0.48303E-02   -0.14449E-03  1058   0.583E-02    0.578E-02
Total vdW correction in eV:    171.5619602
RMM:  24    -0.104258656094E+03   -0.56680E-02   -0.13219E-03  1058   0.416E-02    0.378E-02
Total vdW correction in eV:    171.5619773
RMM:  25    -0.104264712600E+03   -0.60565E-02   -0.17746E-03  1058   0.365E-02    0.324E-02
Total vdW correction in eV:    171.5601718
RMM:  26    -0.104266578648E+03   -0.18660E-02   -0.22893E-04  1059   0.186E-02    0.183E-02
Total vdW correction in eV:    171.5573257
RMM:  27    -0.104269077759E+03   -0.24991E-02   -0.22334E-04   971   0.154E-02    0.185E-02
Total vdW correction in eV:    171.5556489
RMM:  28    -0.104270541828E+03   -0.14641E-02   -0.75250E-05   698   0.874E-03    0.885E-03
Total vdW correction in eV:    171.5541618
RMM:  29    -0.104271644120E+03   -0.11023E-02   -0.74338E-05   695   0.929E-03    0.853E-03
Total vdW correction in eV:    171.5531117
RMM:  30    -0.104272240136E+03   -0.59602E-03   -0.34148E-05   648   0.666E-03    0.488E-03
Total vdW correction in eV:    171.5524265
RMM:  31    -0.104272676030E+03   -0.43589E-03   -0.33209E-05   654   0.484E-03    0.300E-03
Total vdW correction in eV:    171.5523120
RMM:  32    -0.104272779791E+03   -0.10376E-03   -0.61671E-06   633   0.320E-03    0.201E-03
Total vdW correction in eV:    171.5522941
RMM:  33    -0.104272852098E+03   -0.72307E-04   -0.39164E-06   627   0.221E-03    0.103E-03
Total vdW correction in eV:    171.5523245
RMM:  34    -0.104272895145E+03   -0.43047E-04   -0.22080E-06   554   0.151E-03    0.721E-04
Total vdW correction in eV:    171.5523489
RMM:  35    -0.104272911621E+03   -0.16476E-04   -0.69432E-07   286   0.106E-03    0.404E-04
Total vdW correction in eV:    171.5523592
RMM:  36    -0.104272923742E+03   -0.12121E-04   -0.76911E-07   358   0.111E-03    0.347E-04
Total vdW correction in eV:    171.5523570
RMM:  37    -0.104272926596E+03   -0.28542E-05   -0.76402E-08   178   0.893E-04
Total vdW correction in eV:    171.5523281
Total vdW correction in eV:    171.5523489
   1 F= -.10427293E+03 E0= -.10391898E+03  d E =-.104273E+03
quench:  g(F)=  0.000E+00 g(S)=  0.000E+00 dE (1.order)= 0.000E+00
 bond charge predicted
       N       E                     dE             d eps       ncg     rms          rms(c)
Total vdW correction in eV:    171.5524514
RMM:   1    -0.104367076671E+03   -0.94153E-01   -0.10564E-01  1065   0.341E-01    0.543E-02
Total vdW correction in eV:    171.5524578
RMM:   2    -0.104367057654E+03    0.19017E-04   -0.23382E-03  1026   0.709E-02    0.396E-02
Total vdW correction in eV:    171.5522156
RMM:   3    -0.104367051734E+03    0.59203E-05   -0.22325E-04   869   0.244E-02    0.342E-02
Total vdW correction in eV:    171.5521448
RMM:   4    -0.104367036960E+03    0.14774E-04   -0.82219E-05   754   0.141E-02    0.124E-02
Total vdW correction in eV:    171.5522888
RMM:   5    -0.104367033533E+03    0.34263E-05   -0.15515E-05   610   0.907E-03
Total vdW correction in eV:    171.5521378
Total vdW correction in eV:    171.5522396
   2 F= -.10436703E+03 E0= -.10401305E+03  d E =-.941069E-01
quench:  g(F)=  0.000E+00 g(S)=  0.000E+00 dE (1.order)= 0.000E+00
 bond charge predicted
       N       E                     dE             d eps       ncg     rms          rms(c)
Total vdW correction in eV:    171.5546371
RMM:   1    -0.107433767020E+03   -0.30667E+01   -0.79343E+01  1069   0.113E+01    0.157E+00
Total vdW correction in eV:    171.5448173
RMM:   2    -0.105737907650E+03    0.16959E+01   -0.12189E+00  1068   0.173E+00    0.130E+00
Total vdW correction in eV:    171.5454427
RMM:   3    -0.105698678016E+03    0.39230E-01   -0.15417E-01  1064   0.609E-01    0.742E-01
Total vdW correction in eV:    171.5468122
RMM:   4    -0.105693889798E+03    0.47882E-02   -0.51064E-02  1074   0.468E-01    0.563E-01
Total vdW correction in eV:    171.5505531
RMM:   5    -0.105691990705E+03    0.18991E-02   -0.14331E-02  1063   0.199E-01    0.221E-01
Total vdW correction in eV:    171.5483495
RMM:   6    -0.105691861653E+03    0.12905E-03   -0.58311E-03  1065   0.162E-01    0.148E-01
Total vdW correction in eV:    171.5484026
RMM:   7    -0.105691209359E+03    0.65229E-03   -0.16226E-03  1066   0.907E-02    0.412E-02
Total vdW correction in eV:    171.5492396
RMM:   8    -0.105691291731E+03   -0.82372E-04   -0.28334E-04  1071   0.265E-02    0.329E-02
Total vdW correction in eV:    171.5490324
RMM:   9    -0.105691372953E+03   -0.81222E-04   -0.72802E-05   923   0.174E-02    0.247E-02
Total vdW correction in eV:    171.5491129
RMM:  10    -0.105691463094E+03   -0.90140E-04   -0.44710E-05   680   0.119E-02    0.980E-03
Total vdW correction in eV:    171.5493908
RMM:  11    -0.105691534405E+03   -0.71312E-04   -0.21297E-05   643   0.836E-03    0.549E-03
Total vdW correction in eV:    171.5493716
RMM:  12    -0.105691645770E+03   -0.11136E-03   -0.16995E-05   646   0.535E-03    0.537E-03
Total vdW correction in eV:    171.5493478
RMM:  13    -0.105691723209E+03   -0.77439E-04   -0.10494E-05   633   0.495E-03    0.356E-03
Total vdW correction in eV:    171.5493576
RMM:  14    -0.105691814007E+03   -0.90798E-04   -0.16839E-05   643   0.399E-03    0.211E-03
Total vdW correction in eV:    171.5493266
RMM:  15    -0.105691843186E+03   -0.29179E-04   -0.46814E-06   624   0.275E-03    0.151E-03
Total vdW correction in eV:    171.5493204
RMM:  16    -0.105691864137E+03   -0.20951E-04   -0.26468E-06   614   0.212E-03    0.118E-03
Total vdW correction in eV:    171.5493098
RMM:  17    -0.105691874513E+03   -0.10376E-04   -0.91821E-07   497   0.147E-03    0.609E-04
Total vdW correction in eV:    171.5492793
RMM:  18    -0.105691888638E+03   -0.14125E-04   -0.88533E-07   264   0.111E-03    0.502E-04
Total vdW correction in eV:    171.5492758
RMM:  19    -0.105691893207E+03   -0.45690E-05   -0.27778E-07   213   0.100E-03
Total vdW correction in eV:    171.5492733
Total vdW correction in eV:    171.5492746
   3 F= -.10569189E+03 E0= -.10533721E+03  d E =-.132486E+01
quench:  g(F)=  0.000E+00 g(S)=  0.000E+00 dE (1.order)= 0.000E+00
 bond charge predicted
       N       E                     dE             d eps       ncg     rms          rms(c)
Total vdW correction in eV:    171.5497588
RMM:   1    -0.105720889101E+03   -0.29000E-01   -0.13726E-01  1062   0.421E-01    0.570E-02
Total vdW correction in eV:    171.5499387
RMM:   2    -0.105719964771E+03    0.92433E-03   -0.29149E-03  1293   0.687E-02    0.524E-02
Total vdW correction in eV:    171.5498781
RMM:   3    -0.105719900375E+03    0.64396E-04   -0.31179E-04  1043   0.290E-02    0.331E-02
Total vdW correction in eV:    171.5499066
RMM:   4    -0.105719876136E+03    0.24240E-04   -0.47404E-05   703   0.113E-02    0.161E-02
Total vdW correction in eV:    171.5499335
RMM:   5    -0.105719874266E+03    0.18693E-05   -0.41563E-05   654   0.109E-02
Total vdW correction in eV:    171.5499909
Total vdW correction in eV:    171.5499388
   4 F= -.10571987E+03 E0= -.10536519E+03  d E =-.279811E-01
quench:  g(F)=  0.000E+00 g(S)=  0.000E+00 dE (1.order)= 0.000E+00
 bond charge predicted
       N       E                     dE             d eps       ncg     rms          rms(c)
Total vdW correction in eV:    171.5614610
RMM:   1    -0.107888429894E+03   -0.21686E+01   -0.10866E+02  1067   0.127E+01    0.212E+00
Total vdW correction in eV:    171.5457902
RMM:   2    -0.106265566646E+03    0.16229E+01   -0.32999E+00  1225   0.193E+00    0.199E+00
Total vdW correction in eV:    171.5548683
RMM:   3    -0.106132150981E+03    0.13342E+00   -0.26098E-01  1073   0.817E-01    0.116E+00
Total vdW correction in eV:    171.5586655
RMM:   4    -0.106111712627E+03    0.20438E-01   -0.53135E-02  1076   0.393E-01    0.819E-01
Total vdW correction in eV:    171.5691109
RMM:   5    -0.106101581833E+03    0.10131E-01   -0.92988E-02  1059   0.336E-01    0.592E-01
Total vdW correction in eV:    171.5665714
RMM:   6    -0.106097585557E+03    0.39963E-02   -0.17471E-02  1068   0.236E-01    0.354E-01
Total vdW correction in eV:    171.5645541
RMM:   7    -0.106095399474E+03    0.21861E-02   -0.95416E-03  1060   0.173E-01    0.699E-02
Total vdW correction in eV:    171.5651347
RMM:   8    -0.106095655072E+03   -0.25560E-03   -0.10469E-03  1074   0.517E-02    0.525E-02
Total vdW correction in eV:    171.5650555
RMM:   9    -0.106095894054E+03   -0.23898E-03   -0.29084E-04  1064   0.333E-02    0.353E-02
Total vdW correction in eV:    171.5648718
RMM:  10    -0.106096476292E+03   -0.58224E-03   -0.24712E-04  1039   0.225E-02    0.177E-02
Total vdW correction in eV:    171.5649752
RMM:  11    -0.106096926937E+03   -0.45064E-03   -0.13484E-04   845   0.138E-02    0.128E-02
Total vdW correction in eV:    171.5649292
RMM:  12    -0.106097173467E+03   -0.24653E-03   -0.57263E-05   710   0.119E-02    0.109E-02
Total vdW correction in eV:    171.5649184
RMM:  13    -0.106097581677E+03   -0.40821E-03   -0.11518E-04   786   0.109E-02    0.835E-03
Total vdW correction in eV:    171.5650676
RMM:  14    -0.106097832650E+03   -0.25097E-03   -0.80296E-05   712   0.737E-03    0.448E-03
Total vdW correction in eV:    171.5650476
RMM:  15    -0.106097918043E+03   -0.85393E-04   -0.25848E-05   655   0.559E-03    0.430E-03
Total vdW correction in eV:    171.5651356
RMM:  16    -0.106097971458E+03   -0.53415E-04   -0.17061E-05   644   0.467E-03    0.439E-03
Total vdW correction in eV:    171.5652281
RMM:  17    -0.106097992098E+03   -0.20640E-04   -0.10418E-05   637   0.349E-03    0.204E-03
Total vdW correction in eV:    171.5652367
RMM:  18    -0.106097999415E+03   -0.73169E-05   -0.54222E-06   625   0.264E-03
Total vdW correction in eV:    171.5654010
Total vdW correction in eV:    171.5652832
   5 F= -.10609800E+03 E0= -.10574346E+03  d E =-.378125E+00
quench:  g(F)=  0.000E+00 g(S)=  0.000E+00 dE (1.order)= 0.000E+00
 bond charge predicted
       N       E                     dE             d eps       ncg     rms          rms(c)
Total vdW correction in eV:    171.5649220
RMM:   1    -0.106122802905E+03   -0.24811E-01   -0.10791E-01  1061   0.397E-01    0.596E-02
Total vdW correction in eV:    171.5650958
RMM:   2    -0.106122159685E+03    0.64322E-03   -0.28870E-03  1295   0.712E-02    0.342E-02
Total vdW correction in eV:    171.5648395
RMM:   3    -0.106122118395E+03    0.41290E-04   -0.12650E-04   803   0.162E-02    0.218E-02
Total vdW correction in eV:    171.5649605
RMM:   4    -0.106122115094E+03    0.33008E-05   -0.72546E-05   916   0.181E-02
Total vdW correction in eV:    171.5647363
Total vdW correction in eV:    171.5649708
   6 F= -.10612212E+03 E0= -.10576751E+03  d E =-.241157E-01
quench:  g(F)=  0.000E+00 g(S)=  0.000E+00 dE (1.order)= 0.000E+00
 bond charge predicted
       N       E                     dE             d eps       ncg     rms          rms(c)
Total vdW correction in eV:    171.5594603
RMM:   1    -0.106549541850E+03   -0.42742E+00   -0.28256E+01  1064   0.647E+00    0.930E-01
Total vdW correction in eV:    171.5556875
RMM:   2    -0.106331079008E+03    0.21846E+00   -0.84240E-01  1317   0.109E+00    0.995E-01
Total vdW correction in eV:    171.5573999
RMM:   3    -0.106306691491E+03    0.24388E-01   -0.65064E-02  1076   0.430E-01    0.529E-01
Total vdW correction in eV:    171.5587060
RMM:   4    -0.106304454041E+03    0.22374E-02   -0.18666E-02  1077   0.213E-01    0.344E-01
Total vdW correction in eV:    171.5596368
RMM:   5    -0.106303131241E+03    0.13228E-02   -0.88730E-03  1064   0.169E-01    0.138E-01
Total vdW correction in eV:    171.5587693
RMM:   6    -0.106302985099E+03    0.14614E-03   -0.29131E-03  1066   0.120E-01    0.102E-01
Total vdW correction in eV:    171.5588182
RMM:   7    -0.106302740620E+03    0.24448E-03   -0.68473E-04  1066   0.627E-02    0.340E-02
Total vdW correction in eV:    171.5592320
RMM:   8    -0.106302798415E+03   -0.57795E-04   -0.12588E-04   902   0.171E-02    0.196E-02
Total vdW correction in eV:    171.5590989
RMM:   9    -0.106302870649E+03   -0.72234E-04   -0.62072E-05   874   0.167E-02    0.150E-02
Total vdW correction in eV:    171.5591656
RMM:  10    -0.106302940327E+03   -0.69679E-04   -0.23639E-05   646   0.105E-02    0.555E-03
Total vdW correction in eV:    171.5593296
RMM:  11    -0.106302999944E+03   -0.59616E-04   -0.72415E-06   623   0.523E-03    0.411E-03
Total vdW correction in eV:    171.5592702
RMM:  12    -0.106303100508E+03   -0.10056E-03   -0.11606E-05   639   0.465E-03    0.308E-03
Total vdW correction in eV:    171.5592360
RMM:  13    -0.106303162802E+03   -0.62294E-04   -0.72020E-06   631   0.369E-03    0.239E-03
Total vdW correction in eV:    171.5592411
RMM:  14    -0.106303224716E+03   -0.61914E-04   -0.90218E-06   638   0.317E-03    0.168E-03
Total vdW correction in eV:    171.5591734
RMM:  15    -0.106303254326E+03   -0.29610E-04   -0.32857E-06   621   0.224E-03    0.133E-03
Total vdW correction in eV:    171.5591502
RMM:  16    -0.106303270772E+03   -0.16446E-04   -0.15153E-06   569   0.158E-03    0.965E-04
Total vdW correction in eV:    171.5591498
RMM:  17    -0.106303277122E+03   -0.63504E-05   -0.26845E-07   259   0.104E-03
Total vdW correction in eV:    171.5591425
Total vdW correction in eV:    171.5591464
   7 F= -.10630328E+03 E0= -.10594785E+03  d E =-.181162E+00
quench:  g(F)=  0.000E+00 g(S)=  0.000E+00 dE (1.order)= 0.000E+00
 bond charge predicted
       N       E                     dE             d eps       ncg     rms          rms(c)
Total vdW correction in eV:    171.5593514
RMM:   1    -0.106315298037E+03   -0.12027E-01   -0.13578E-01  1079   0.460E-01    0.509E-02
Total vdW correction in eV:    171.5594729
RMM:   2    -0.106313727881E+03    0.15702E-02   -0.32333E-03  1441   0.705E-02    0.268E-02
Total vdW correction in eV:    171.5594152
RMM:   3    -0.106313689157E+03    0.38724E-04   -0.16435E-04  1060   0.157E-02    0.195E-02
Total vdW correction in eV:    171.5593955
RMM:   4    -0.106313686152E+03    0.30045E-05   -0.40204E-05   716   0.134E-02
Total vdW correction in eV:    171.5593654
Total vdW correction in eV:    171.5593736
   8 F= -.10631369E+03 E0= -.10595823E+03  d E =-.104090E-01
quench:  g(F)=  0.000E+00 g(S)=  0.000E+00 dE (1.order)= 0.000E+00
 bond charge predicted
       N       E                     dE             d eps       ncg     rms          rms(c)
Total vdW correction in eV:    171.5638674
RMM:   1    -0.107435096001E+03   -0.11214E+01   -0.85620E+01  1095   0.118E+01    0.197E+00
Total vdW correction in eV:    171.5448281
RMM:   2    -0.106651073810E+03    0.78402E+00   -0.33791E+00  1105   0.210E+00    0.226E+00
Total vdW correction in eV:    171.5537402
RMM:   3    -0.106476324513E+03    0.17475E+00   -0.22738E-01  1084   0.796E-01    0.127E+00
Total vdW correction in eV:    171.5573296
RMM:   4    -0.106454799304E+03    0.21525E-01   -0.42561E-02  1083   0.342E-01    0.948E-01
Total vdW correction in eV:    171.5674181
RMM:   5    -0.106439050004E+03    0.15749E-01   -0.90907E-02  1059   0.327E-01    0.446E-01
Total vdW correction in eV:    171.5654569
RMM:   6    -0.106438457705E+03    0.59230E-03   -0.13514E-02  1069   0.228E-01    0.301E-01
Total vdW correction in eV:    171.5634179
RMM:   7    -0.106437175157E+03    0.12825E-02   -0.96256E-03  1059   0.155E-01    0.947E-02
Total vdW correction in eV:    171.5643858
RMM:   8    -0.106437042107E+03    0.13305E-03   -0.64043E-04  1066   0.376E-02    0.378E-02
Total vdW correction in eV:    171.5642493
RMM:   9    -0.106437196325E+03   -0.15422E-03   -0.25110E-04  1072   0.267E-02    0.270E-02
Total vdW correction in eV:    171.5641470
RMM:  10    -0.106437430735E+03   -0.23441E-03   -0.89563E-05   823   0.156E-02    0.165E-02
Total vdW correction in eV:    171.5642731
RMM:  11    -0.106437672388E+03   -0.24165E-03   -0.71386E-05   727   0.105E-02    0.103E-02
Total vdW correction in eV:    171.5641402
RMM:  12    -0.106437845651E+03   -0.17326E-03   -0.35390E-05   669   0.898E-03    0.110E-02
Total vdW correction in eV:    171.5641280
RMM:  13    -0.106437952274E+03   -0.10662E-03   -0.15307E-05   642   0.550E-03    0.654E-03
Total vdW correction in eV:    171.5642439
RMM:  14    -0.106438142620E+03   -0.19035E-03   -0.56654E-05   700   0.638E-03    0.549E-03
Total vdW correction in eV:    171.5641833
RMM:  15    -0.106438187825E+03   -0.45205E-04   -0.11556E-05   639   0.408E-03    0.487E-03
Total vdW correction in eV:    171.5642028
RMM:  16    -0.106438212887E+03   -0.25061E-04   -0.57587E-06   624   0.280E-03    0.194E-03
Total vdW correction in eV:    171.5642264
RMM:  17    -0.106438227881E+03   -0.14994E-04   -0.34884E-06   620   0.239E-03    0.171E-03
Total vdW correction in eV:    171.5642302
RMM:  18    -0.106438234200E+03   -0.63195E-05   -0.28671E-06   615   0.181E-03
Total vdW correction in eV:    171.5643413
Total vdW correction in eV:    171.5642560
   9 F= -.10643823E+03 E0= -.10608241E+03  d E =-.124548E+00
quench:  g(F)=  0.000E+00 g(S)=  0.000E+00 dE (1.order)= 0.000E+00
 bond charge predicted
       N       E                     dE             d eps       ncg     rms          rms(c)
Total vdW correction in eV:    171.5648719
RMM:   1    -0.106447833828E+03   -0.96059E-02   -0.13652E-01  1075   0.463E-01    0.571E-02
Total vdW correction in eV:    171.5651033
RMM:   2    -0.106446382581E+03    0.14512E-02   -0.34052E-03  1410   0.725E-02    0.294E-02
Total vdW correction in eV:    171.5652262
RMM:   3    -0.106446329762E+03    0.52819E-04   -0.17281E-04   987   0.178E-02    0.211E-02
Total vdW correction in eV:    171.5651856
RMM:   4    -0.106446326079E+03    0.36828E-05   -0.46089E-05   719   0.139E-02
Total vdW correction in eV:    171.5654628
Total vdW correction in eV:    171.5652380
  10 F= -.10644633E+03 E0= -.10609048E+03  d E =-.809188E-02
quench:  g(F)=  0.000E+00 g(S)=  0.000E+00 dE (1.order)= 0.000E+00
 bond charge predicted
       N       E                     dE             d eps       ncg     rms          rms(c)
Total vdW correction in eV:    171.5774175
RMM:   1    -0.107116032343E+03   -0.66970E+00   -0.57018E+01  1090   0.954E+00    0.123E+00
Total vdW correction in eV:    171.5689275
RMM:   2    -0.106596295569E+03    0.51974E+00   -0.16389E+00  1211   0.163E+00    0.143E+00
Total vdW correction in eV:    171.5758263
RMM:   3    -0.106533332665E+03    0.62963E-01   -0.91215E-02  1075   0.529E-01    0.832E-01
Total vdW correction in eV:    171.5794383
RMM:   4    -0.106525926192E+03    0.74065E-02   -0.27292E-02  1091   0.256E-01    0.615E-01
Total vdW correction in eV:    171.5871678
RMM:   5    -0.106521967090E+03    0.39591E-02   -0.42294E-02  1060   0.283E-01    0.333E-01
Total vdW correction in eV:    171.5860680
RMM:   6    -0.106521107350E+03    0.85974E-03   -0.82027E-03  1061   0.180E-01    0.222E-01
Total vdW correction in eV:    171.5850202
RMM:   7    -0.106520200072E+03    0.90728E-03   -0.41693E-03  1062   0.123E-01    0.508E-02
Total vdW correction in eV:    171.5849851
RMM:   8    -0.106520270667E+03   -0.70596E-04   -0.28678E-04  1062   0.250E-02    0.320E-02
Total vdW correction in eV:    171.5850493
RMM:   9    -0.106520403409E+03   -0.13274E-03   -0.17568E-04  1053   0.233E-02    0.249E-02
Total vdW correction in eV:    171.5851034
RMM:  10    -0.106520521947E+03   -0.11854E-03   -0.59525E-05   761   0.150E-02    0.160E-02
Total vdW correction in eV:    171.5850095
RMM:  11    -0.106520768182E+03   -0.24624E-03   -0.12108E-04   776   0.110E-02    0.130E-02
Total vdW correction in eV:    171.5849492
RMM:  12    -0.106520862166E+03   -0.93983E-04   -0.28980E-05   660   0.901E-03    0.124E-02
Total vdW correction in eV:    171.5849724
RMM:  13    -0.106520988292E+03   -0.12613E-03   -0.38346E-05   672   0.607E-03    0.494E-03
Total vdW correction in eV:    171.5850723
RMM:  14    -0.106521103151E+03   -0.11486E-03   -0.34606E-05   668   0.507E-03    0.532E-03
Total vdW correction in eV:    171.5850479
RMM:  15    -0.106521129876E+03   -0.26725E-04   -0.85386E-06   630   0.340E-03    0.288E-03
Total vdW correction in eV:    171.5850638
RMM:  16    -0.106521152020E+03   -0.22144E-04   -0.67475E-06   629   0.295E-03    0.195E-03
Total vdW correction in eV:    171.5850984
RMM:  17    -0.106521162587E+03   -0.10567E-04   -0.29282E-06   604   0.202E-03    0.119E-03
Total vdW correction in eV:    171.5850908
RMM:  18    -0.106521169271E+03   -0.66842E-05   -0.25330E-06   463   0.156E-03
Total vdW correction in eV:    171.5851684
Total vdW correction in eV:    171.5851055
  11 F= -.10652117E+03 E0= -.10616473E+03  d E =-.748432E-01
quench:  g(F)=  0.000E+00 g(S)=  0.000E+00 dE (1.order)= 0.000E+00
 bond charge predicted
       N       E                     dE             d eps       ncg     rms          rms(c)
Total vdW correction in eV:    171.5860401
RMM:   1    -0.106527801827E+03   -0.66392E-02   -0.12936E-01  1072   0.469E-01    0.520E-02
Total vdW correction in eV:    171.5859182
RMM:   2    -0.106526437620E+03    0.13642E-02   -0.30266E-03  1331   0.724E-02    0.336E-02
Total vdW correction in eV:    171.5860656
RMM:   3    -0.106526405590E+03    0.32031E-04   -0.26260E-04  1103   0.259E-02    0.257E-02
Total vdW correction in eV:    171.5860771
RMM:   4    -0.106526395284E+03    0.10306E-04   -0.45773E-05   737   0.132E-02    0.161E-02
Total vdW correction in eV:    171.5861298
RMM:   5    -0.106526393797E+03    0.14873E-05   -0.21025E-05   634   0.862E-03
Total vdW correction in eV:    171.5862649
Total vdW correction in eV:    171.5861687
  12 F= -.10652639E+03 E0= -.10616991E+03  d E =-.522453E-02
quench:  g(F)=  0.000E+00 g(S)=  0.000E+00 dE (1.order)= 0.000E+00
 bond charge predicted
       N       E                     dE             d eps       ncg     rms          rms(c)
Total vdW correction in eV:    171.6008623
RMM:   1    -0.106938993679E+03   -0.41260E+00   -0.33081E+01  1074   0.749E+00    0.115E+00
Total vdW correction in eV:    171.5906238
RMM:   2    -0.106606981795E+03    0.33201E+00   -0.10463E+00  1297   0.133E+00    0.112E+00
Total vdW correction in eV:    171.5962718
RMM:   3    -0.106570221320E+03    0.36760E-01   -0.89375E-02  1091   0.530E-01    0.561E-01
Total vdW correction in eV:    171.5984804
RMM:   4    -0.106566228991E+03    0.39923E-02   -0.17697E-02  1084   0.235E-01    0.414E-01
Total vdW correction in eV:    171.6025324
RMM:   5    -0.106564516550E+03    0.17124E-02   -0.11308E-02  1059   0.158E-01    0.190E-01
Total vdW correction in eV:    171.6025463
RMM:   6    -0.106564698525E+03   -0.18197E-03   -0.36327E-03  1067   0.128E-01    0.142E-01
Total vdW correction in eV:    171.6021981
RMM:   7    -0.106564307238E+03    0.39129E-03   -0.16197E-03  1061   0.860E-02    0.316E-02
Total vdW correction in eV:    171.6021281
RMM:   8    -0.106564333510E+03   -0.26272E-04   -0.98553E-05   986   0.181E-02    0.198E-02
Total vdW correction in eV:    171.6020623
RMM:   9    -0.106564364547E+03   -0.31038E-04   -0.33876E-05   666   0.125E-02    0.145E-02
Total vdW correction in eV:    171.6019512
RMM:  10    -0.106564455653E+03   -0.91106E-04   -0.45527E-05   683   0.979E-03    0.101E-02
Total vdW correction in eV:    171.6019420
RMM:  11    -0.106564494833E+03   -0.39179E-04   -0.15363E-05   636   0.584E-03    0.521E-03
Total vdW correction in eV:    171.6019078
RMM:  12    -0.106564533830E+03   -0.38998E-04   -0.10116E-05   629   0.528E-03    0.646E-03
Total vdW correction in eV:    171.6019241
RMM:  13    -0.106564591027E+03   -0.57197E-04   -0.14189E-05   643   0.416E-03    0.242E-03
Total vdW correction in eV:    171.6019976
RMM:  14    -0.106564615194E+03   -0.24167E-04   -0.77793E-06   632   0.286E-03    0.243E-03
Total vdW correction in eV:    171.6019812
RMM:  15    -0.106564620674E+03   -0.54795E-05   -0.15437E-06   598   0.195E-03
Total vdW correction in eV:    171.6021082
Total vdW correction in eV:    171.6020100
  13 F= -.10656462E+03 E0= -.10620755E+03  d E =-.382269E-01
quench:  g(F)=  0.000E+00 g(S)=  0.000E+00 dE (1.order)= 0.000E+00
 bond charge predicted
       N       E                     dE             d eps       ncg     rms          rms(c)
Total vdW correction in eV:    171.6030532
RMM:   1    -0.106570523165E+03   -0.59080E-02   -0.11514E-01  1071   0.448E-01    0.487E-02
Total vdW correction in eV:    171.6030048
RMM:   2    -0.106569412118E+03    0.11110E-02   -0.27120E-03  1295   0.729E-02    0.374E-02
Total vdW correction in eV:    171.6031114
RMM:   3    -0.106569378577E+03    0.33541E-04   -0.23018E-04  1064   0.263E-02    0.244E-02
Total vdW correction in eV:    171.6031381
RMM:   4    -0.106569370846E+03    0.77308E-05   -0.33881E-05   703   0.112E-02
Total vdW correction in eV:    171.6033245
Total vdW correction in eV:    171.6032088
  14 F= -.10656937E+03 E0= -.10621225E+03  d E =-.475017E-02
quench:  g(F)=  0.000E+00 g(S)=  0.000E+00 dE (1.order)= 0.000E+00
 bond charge predicted
       N       E                     dE             d eps       ncg     rms          rms(c)
Total vdW correction in eV:    171.6249169
RMM:   1    -0.107134367291E+03   -0.56499E+00   -0.50522E+01  1078   0.940E+00    0.133E+00
Total vdW correction in eV:    171.6104442
RMM:   2    -0.106707534442E+03    0.42683E+00   -0.16804E+00  1206   0.178E+00    0.173E+00
Total vdW correction in eV:    171.6170216
RMM:   3    -0.106624704159E+03    0.82830E-01   -0.15676E-01  1079   0.740E-01    0.832E-01
Total vdW correction in eV:    171.6209449
RMM:   4    -0.106618249908E+03    0.64543E-02   -0.20349E-02  1088   0.232E-01    0.643E-01
Total vdW correction in eV:    171.6287218
RMM:   5    -0.106616393594E+03    0.18563E-02   -0.30383E-02  1062   0.248E-01    0.256E-01
Total vdW correction in eV:    171.6283881
RMM:   6    -0.106616742853E+03   -0.34926E-03   -0.73688E-03  1068   0.190E-01    0.206E-01
Total vdW correction in eV:    171.6270662
RMM:   7    -0.106615834049E+03    0.90880E-03   -0.24893E-03  1063   0.102E-01    0.463E-02
Total vdW correction in eV:    171.6272778
RMM:   8    -0.106615848788E+03   -0.14739E-04   -0.19856E-04  1076   0.282E-02    0.303E-02
Total vdW correction in eV:    171.6272660
RMM:   9    -0.106615855519E+03   -0.67316E-05   -0.79800E-05   974   0.189E-02
Total vdW correction in eV:    171.6267132
Total vdW correction in eV:    171.6271841
  15 F= -.10661586E+03 E0= -.10625735E+03  d E =-.464847E-01
quench:  g(F)=  0.000E+00 g(S)=  0.000E+00 dE (1.order)= 0.000E+00
 bond charge predicted
       N       E                     dE             d eps       ncg     rms          rms(c)
Total vdW correction in eV:    171.6283793
RMM:   1    -0.106621129196E+03   -0.52804E-02   -0.13051E-01  1076   0.463E-01    0.530E-02
Total vdW correction in eV:    171.6282517
RMM:   2    -0.106620004364E+03    0.11248E-02   -0.30158E-03  1297   0.741E-02    0.358E-02
Total vdW correction in eV:    171.6284151
RMM:   3    -0.106619985929E+03    0.18435E-04   -0.27738E-04  1108   0.277E-02    0.261E-02
Total vdW correction in eV:    171.6284163
RMM:   4    -0.106619984619E+03    0.13102E-05   -0.40563E-05   728   0.126E-02
Total vdW correction in eV:    171.6285029
Total vdW correction in eV:    171.6284325
  16 F= -.10661998E+03 E0= -.10626146E+03  d E =-.412910E-02
quench:  g(F)=  0.000E+00 g(S)=  0.000E+00 dE (1.order)= 0.000E+00
 bond charge predicted
       N       E                     dE             d eps       ncg     rms          rms(c)
Total vdW correction in eV:    171.6515138
RMM:   1    -0.107205029686E+03   -0.58504E+00   -0.49943E+01  1079   0.907E+00    0.147E+00
Total vdW correction in eV:    171.6380814
RMM:   2    -0.106741592740E+03    0.46344E+00   -0.17706E+00  1258   0.168E+00    0.159E+00
Total vdW correction in eV:    171.6452726
RMM:   3    -0.106669957447E+03    0.71635E-01   -0.15620E-01  1088   0.700E-01    0.815E-01
Total vdW correction in eV:    171.6482153
RMM:   4    -0.106661927501E+03    0.80299E-02   -0.26085E-02  1082   0.282E-01    0.618E-01
Total vdW correction in eV:    171.6552344
RMM:   5    -0.106659100354E+03    0.28271E-02   -0.31055E-02  1063   0.224E-01    0.296E-01
Total vdW correction in eV:    171.6544795
RMM:   6    -0.106659350718E+03   -0.25036E-03   -0.70691E-03  1068   0.175E-01    0.201E-01
Total vdW correction in eV:    171.6533514
RMM:   7    -0.106658674099E+03    0.67662E-03   -0.36259E-03  1062   0.113E-01    0.493E-02
Total vdW correction in eV:    171.6537132
RMM:   8    -0.106658666431E+03    0.76685E-05   -0.23983E-04  1072   0.259E-02    0.254E-02
Total vdW correction in eV:    171.6536738
RMM:   9    -0.106658700986E+03   -0.34556E-04   -0.82655E-05   889   0.168E-02    0.204E-02
Total vdW correction in eV:    171.6535715
RMM:  10    -0.106658766129E+03   -0.65143E-04   -0.29503E-05   662   0.972E-03    0.104E-02
Total vdW correction in eV:    171.6535589
RMM:  11    -0.106658820210E+03   -0.54081E-04   -0.20546E-05   647   0.647E-03    0.554E-03
Total vdW correction in eV:    171.6535267
RMM:  12    -0.106658846558E+03   -0.26348E-04   -0.66683E-06   610   0.543E-03    0.464E-03
Total vdW correction in eV:    171.6535267
RMM:  13    -0.106658885378E+03   -0.38820E-04   -0.52533E-06   620   0.289E-03    0.237E-03
Total vdW correction in eV:    171.6536046
RMM:  14    -0.106658927917E+03   -0.42539E-04   -0.11231E-05   640   0.285E-03    0.220E-03
Total vdW correction in eV:    171.6535937
RMM:  15    -0.106658936651E+03   -0.87336E-05   -0.23533E-06   608   0.211E-03
Total vdW correction in eV:    171.6536454
Total vdW correction in eV:    171.6535961
  17 F= -.10665894E+03 E0= -.10629956E+03  d E =-.389520E-01
quench:  g(F)=  0.000E+00 g(S)=  0.000E+00 dE (1.order)= 0.000E+00
 bond charge predicted
       N       E                     dE             d eps       ncg     rms          rms(c)
Total vdW correction in eV:    171.6544286
RMM:   1    -0.106664037977E+03   -0.51101E-02   -0.12962E-01  1079   0.490E-01    0.460E-02
Total vdW correction in eV:    171.6545583
RMM:   2    -0.106662880309E+03    0.11577E-02   -0.25184E-03  1328   0.721E-02    0.237E-02
Total vdW correction in eV:    171.6547045
RMM:   3    -0.106662849764E+03    0.30545E-04   -0.12817E-04   952   0.175E-02    0.174E-02
Total vdW correction in eV:    171.6546586
RMM:   4    -0.106662847019E+03    0.27449E-05   -0.26913E-05   650   0.118E-02
Total vdW correction in eV:    171.6548356
Total vdW correction in eV:    171.6546899
  18 F= -.10666285E+03 E0= -.10630341E+03  d E =-.391037E-02
quench:  g(F)=  0.000E+00 g(S)=  0.000E+00 dE (1.order)= 0.000E+00
 bond charge predicted
       N       E                     dE             d eps       ncg     rms          rms(c)
Total vdW correction in eV:    171.6843197
RMM:   1    -0.108494017849E+03   -0.18312E+01   -0.16621E+02  1091   0.175E+01    0.315E+00
Total vdW correction in eV:    171.6433268
RMM:   2    -0.107268321627E+03    0.12257E+01   -0.68132E+00  1079   0.323E+00    0.383E+00
Total vdW correction in eV:    171.6630700
RMM:   3    -0.106847842544E+03    0.42048E+00   -0.47486E-01  1075   0.131E+00    0.226E+00
Total vdW correction in eV:    171.6703057
RMM:   4    -0.106789874766E+03    0.57968E-01   -0.82834E-02  1077   0.480E-01    0.176E+00
Total vdW correction in eV:    171.6914861
RMM:   5    -0.106725132955E+03    0.64742E-01   -0.25742E-01  1057   0.486E-01    0.449E-01
Total vdW correction in eV:    171.6925812
RMM:   6    -0.106727471437E+03   -0.23385E-02   -0.29545E-02  1074   0.340E-01    0.350E-01
Total vdW correction in eV:    171.6913002
RMM:   7    -0.106726742922E+03    0.72852E-03   -0.12429E-02  1062   0.212E-01    0.169E-01
Total vdW correction in eV:    171.6925093
RMM:   8    -0.106725961428E+03    0.78149E-03   -0.22003E-03  1066   0.656E-02    0.494E-02
Total vdW correction in eV:    171.6931070
RMM:   9    -0.106726053920E+03   -0.92492E-04   -0.68821E-04  1099   0.409E-02    0.586E-02
Total vdW correction in eV:    171.6929160
RMM:  10    -0.106726067884E+03   -0.13964E-04   -0.13360E-04   958   0.182E-02    0.284E-02
Total vdW correction in eV:    171.6925573
RMM:  11    -0.106726148655E+03   -0.80771E-04   -0.11571E-04   766   0.122E-02    0.115E-02
Total vdW correction in eV:    171.6925914
RMM:  12    -0.106726228813E+03   -0.80157E-04   -0.36766E-05   668   0.101E-02    0.146E-02
Total vdW correction in eV:    171.6926158
RMM:  13    -0.106726265405E+03   -0.36592E-04   -0.84835E-06   616   0.605E-03    0.102E-02
Total vdW correction in eV:    171.6926289
RMM:  14    -0.106726349902E+03   -0.84498E-04   -0.22350E-05   654   0.454E-03    0.380E-03
Total vdW correction in eV:    171.6927092
RMM:  15    -0.106726400934E+03   -0.51032E-04   -0.10583E-05   634   0.400E-03    0.274E-03
Total vdW correction in eV:    171.6926821
RMM:  16    -0.106726429022E+03   -0.28088E-04   -0.57006E-06   623   0.296E-03    0.190E-03
Total vdW correction in eV:    171.6926762
RMM:  17    -0.106726444146E+03   -0.15124E-04   -0.23111E-06   603   0.204E-03    0.135E-03
Total vdW correction in eV:    171.6927213
RMM:  18    -0.106726458977E+03   -0.14831E-04   -0.32804E-06   566   0.169E-03    0.880E-04
Total vdW correction in eV:    171.6927206
RMM:  19    -0.106726462025E+03   -0.30479E-05   -0.13699E-06   354   0.128E-03
Total vdW correction in eV:    171.6927154
Total vdW correction in eV:    171.6927196
  19 F= -.10672646E+03 E0= -.10636528E+03  d E =-.636150E-01
quench:  g(F)=  0.000E+00 g(S)=  0.000E+00 dE (1.order)= 0.000E+00
 bond charge predicted
       N       E                     dE             d eps       ncg     rms          rms(c)
Total vdW correction in eV:    171.6937589
RMM:   1    -0.106730482751E+03   -0.40238E-02   -0.13027E-01  1071   0.478E-01    0.494E-02
Total vdW correction in eV:    171.6937013
RMM:   2    -0.106729374848E+03    0.11079E-02   -0.26805E-03  1277   0.681E-02    0.275E-02
Total vdW correction in eV:    171.6938900
RMM:   3    -0.106729344849E+03    0.29999E-04   -0.16451E-04   939   0.165E-02    0.198E-02
Total vdW correction in eV:    171.6938618
RMM:   4    -0.106729342879E+03    0.19700E-05   -0.44886E-05   710   0.139E-02
Total vdW correction in eV:    171.6941158
Total vdW correction in eV:    171.6939242
  20 F= -.10672934E+03 E0= -.10636815E+03  d E =-.288085E-02
quench:  g(F)=  0.000E+00 g(S)=  0.000E+00 dE (1.order)= 0.000E+00
 bond charge predicted
       N       E                     dE             d eps       ncg     rms          rms(c)
Total vdW correction in eV:    171.7039802
RMM:   1    -0.106865213791E+03   -0.13587E+00   -0.12282E+01  1068   0.461E+00    0.569E-01
Total vdW correction in eV:    171.7007544
RMM:   2    -0.106748570886E+03    0.11664E+00   -0.29634E-01  1277   0.702E-01    0.389E-01
Total vdW correction in eV:    171.7038981
RMM:   3    -0.106743067136E+03    0.55037E-02   -0.20262E-02  1153   0.207E-01    0.253E-01
Total vdW correction in eV:    171.7044739
RMM:   4    -0.106742430745E+03    0.63639E-03   -0.47069E-03  1091   0.127E-01    0.187E-01
Total vdW correction in eV:    171.7055568
RMM:   5    -0.106742218212E+03    0.21253E-03   -0.21638E-03  1067   0.793E-02    0.876E-02
Total vdW correction in eV:    171.7057145
RMM:   6    -0.106742261762E+03   -0.43549E-04   -0.10556E-03  1070   0.674E-02    0.624E-02
Total vdW correction in eV:    171.7056050
RMM:   7    -0.106742209766E+03    0.51996E-04   -0.37167E-04  1065   0.438E-02    0.149E-02
Total vdW correction in eV:    171.7055345
RMM:   8    -0.106742234746E+03   -0.24980E-04   -0.20205E-05   643   0.833E-03    0.968E-03
Total vdW correction in eV:    171.7055515
RMM:   9    -0.106742268680E+03   -0.33934E-04   -0.16263E-05   626   0.896E-03    0.874E-03
Total vdW correction in eV:    171.7055334
RMM:  10    -0.106742318904E+03   -0.50224E-04   -0.15643E-05   639   0.677E-03    0.389E-03
Total vdW correction in eV:    171.7054885
RMM:  11    -0.106742338978E+03   -0.20074E-04   -0.44941E-06   612   0.283E-03    0.257E-03
Total vdW correction in eV:    171.7055267
RMM:  12    -0.106742362641E+03   -0.23662E-04   -0.44651E-06   620   0.302E-03    0.304E-03
Total vdW correction in eV:    171.7055541
RMM:  13    -0.106742382649E+03   -0.20009E-04   -0.71058E-06   623   0.266E-03    0.132E-03
Total vdW correction in eV:    171.7055463
RMM:  14    -0.106742385395E+03   -0.27461E-05   -0.16963E-06   575   0.165E-03
Total vdW correction in eV:    171.7056417
Total vdW correction in eV:    171.7055696
  21 F= -.10674239E+03 E0= -.10638114E+03  d E =-.130425E-01
quench:  g(F)=  0.000E+00 g(S)=  0.000E+00 dE (1.order)= 0.000E+00
 bond charge predicted
       N       E                     dE             d eps       ncg     rms          rms(c)
Total vdW correction in eV:    171.7067743
RMM:   1    -0.106746390320E+03   -0.40077E-02   -0.11142E-01  1062   0.438E-01    0.495E-02
Total vdW correction in eV:    171.7066884
RMM:   2    -0.106745629791E+03    0.76053E-03   -0.23161E-03  1186   0.656E-02    0.302E-02
Total vdW correction in eV:    171.7068165
RMM:   3    -0.106745607548E+03    0.22243E-04   -0.17511E-04   939   0.190E-02    0.242E-02
Total vdW correction in eV:    171.7068590
RMM:   4    -0.106745602266E+03    0.52823E-05   -0.39858E-05   702   0.135E-02
Total vdW correction in eV:    171.7071220
Total vdW correction in eV:    171.7069819
  22 F= -.10674560E+03 E0= -.10638437E+03  d E =-.321687E-02
quench:  g(F)=  0.000E+00 g(S)=  0.000E+00 dE (1.order)= 0.000E+00
 bond charge predicted
       N       E                     dE             d eps       ncg     rms          rms(c)
Total vdW correction in eV:    171.7238473
RMM:   1    -0.106921517523E+03   -0.17591E+00   -0.21770E+01  1062   0.610E+00    0.799E-01
Total vdW correction in eV:    171.7175476
RMM:   2    -0.106778876570E+03    0.14264E+00   -0.50383E-01  1166   0.955E-01    0.662E-01
Total vdW correction in eV:    171.7218683
RMM:   3    -0.106767507841E+03    0.11369E-01   -0.44679E-02  1090   0.324E-01    0.427E-01
Total vdW correction in eV:    171.7235417
RMM:   4    -0.106766108356E+03    0.13995E-02   -0.89714E-03  1081   0.189E-01    0.308E-01
Total vdW correction in eV:    171.7268203
RMM:   5    -0.106766769448E+03   -0.66109E-03   -0.55314E-03  1065   0.112E-01    0.126E-01
Total vdW correction in eV:    171.7269483
RMM:   6    -0.106766819626E+03   -0.50178E-04   -0.17113E-03  1069   0.869E-02    0.847E-02
Total vdW correction in eV:    171.7266795
RMM:   7    -0.106766695963E+03    0.12366E-03   -0.65024E-04  1071   0.571E-02    0.325E-02
Total vdW correction in eV:    171.7264752
RMM:   8    -0.106766711911E+03   -0.15947E-04   -0.73400E-05   765   0.151E-02    0.146E-02
Total vdW correction in eV:    171.7264322
RMM:   9    -0.106766742089E+03   -0.30178E-04   -0.24899E-05   646   0.103E-02    0.119E-02
Total vdW correction in eV:    171.7264320
RMM:  10    -0.106766794424E+03   -0.52335E-04   -0.24086E-05   647   0.888E-03    0.518E-03
Total vdW correction in eV:    171.7264246
RMM:  11    -0.106766817995E+03   -0.23571E-04   -0.62502E-06   616   0.377E-03    0.302E-03
Total vdW correction in eV:    171.7264018
RMM:  12    -0.106766844230E+03   -0.26235E-04   -0.48097E-06   615   0.347E-03    0.348E-03
Total vdW correction in eV:    171.7264287
RMM:  13    -0.106766880188E+03   -0.35958E-04   -0.72502E-06   633   0.295E-03    0.202E-03
Total vdW correction in eV:    171.7264557
RMM:  14    -0.106766894581E+03   -0.14393E-04   -0.32625E-06   600   0.190E-03    0.108E-03
Total vdW correction in eV:    171.7264448
RMM:  15    -0.106766903778E+03   -0.91970E-05   -0.16326E-06   500   0.158E-03
Total vdW correction in eV:    171.7264841
Total vdW correction in eV:    171.7264510
  23 F= -.10676690E+03 E0= -.10640550E+03  d E =-.213015E-01
quench:  g(F)=  0.000E+00 g(S)=  0.000E+00 dE (1.order)= 0.000E+00
 bond charge predicted
       N       E                     dE             d eps       ncg     rms          rms(c)
Total vdW correction in eV:    171.7275199
RMM:   1    -0.106770233039E+03   -0.33385E-02   -0.12228E-01  1066   0.474E-01    0.460E-02
Total vdW correction in eV:    171.7275167
RMM:   2    -0.106769524423E+03    0.70862E-03   -0.24252E-03  1189   0.680E-02    0.277E-02
Total vdW correction in eV:    171.7276328
RMM:   3    -0.106769495138E+03    0.29285E-04   -0.16305E-04  1006   0.197E-02    0.211E-02
Total vdW correction in eV:    171.7276548
RMM:   4    -0.106769492447E+03    0.26901E-05   -0.34292E-05   666   0.122E-02
Total vdW correction in eV:    171.7277980
Total vdW correction in eV:    171.7277183
  24 F= -.10676949E+03 E0= -.10640817E+03  d E =-.258867E-02
quench:  g(F)=  0.000E+00 g(S)=  0.000E+00 dE (1.order)= 0.000E+00
 bond charge predicted
       N       E                     dE             d eps       ncg     rms          rms(c)
Total vdW correction in eV:    171.7439678
RMM:   1    -0.106952025196E+03   -0.18253E+00   -0.28283E+01  1070   0.720E+00    0.803E-01
Total vdW correction in eV:    171.7375667
RMM:   2    -0.106804370691E+03    0.14765E+00   -0.59517E-01  1169   0.111E+00    0.727E-01
Total vdW correction in eV:    171.7427626
RMM:   3    -0.106788793056E+03    0.15578E-01   -0.48026E-02  1112   0.362E-01    0.423E-01
Total vdW correction in eV:    171.7445919
RMM:   4    -0.106787328027E+03    0.14650E-02   -0.92195E-03  1078   0.179E-01    0.311E-01
Total vdW correction in eV:    171.7475365
RMM:   5    -0.106787737846E+03   -0.40982E-03   -0.61975E-03  1061   0.123E-01    0.160E-01
Total vdW correction in eV:    171.7476935
RMM:   6    -0.106787695624E+03    0.42222E-04   -0.27689E-03  1064   0.113E-01    0.105E-01
Total vdW correction in eV:    171.7471893
RMM:   7    -0.106787527793E+03    0.16783E-03   -0.99501E-04  1063   0.685E-02    0.230E-02
Total vdW correction in eV:    171.7469883
RMM:   8    -0.106787545206E+03   -0.17414E-04   -0.56852E-05   760   0.148E-02    0.153E-02
Total vdW correction in eV:    171.7470202
RMM:   9    -0.106787564237E+03   -0.19031E-04   -0.28433E-05   637   0.123E-02    0.113E-02
Total vdW correction in eV:    171.7470291
RMM:  10    -0.106787597055E+03   -0.32818E-04   -0.13639E-05   634   0.733E-03    0.628E-03
Total vdW correction in eV:    171.7469210
RMM:  11    -0.106787619210E+03   -0.22155E-04   -0.74039E-06   614   0.413E-03    0.300E-03
Total vdW correction in eV:    171.7469606
RMM:  12    -0.106787631475E+03   -0.12265E-04   -0.28243E-06   593   0.343E-03    0.279E-03
Total vdW correction in eV:    171.7469911
RMM:  13    -0.106787650110E+03   -0.18635E-04   -0.31082E-06   613   0.245E-03    0.154E-03
Total vdW correction in eV:    171.7469913
RMM:  14    -0.106787665866E+03   -0.15756E-04   -0.49088E-06   619   0.202E-03    0.165E-03
Total vdW correction in eV:    171.7470172
RMM:  15    -0.106787667969E+03   -0.21037E-05   -0.73483E-07   378   0.128E-03
Total vdW correction in eV:    171.7470340
Total vdW correction in eV:    171.7470348
  25 F= -.10678767E+03 E0= -.10642748E+03  d E =-.181755E-01
quench:  g(F)=  0.000E+00 g(S)=  0.000E+00 dE (1.order)= 0.000E+00
 bond charge predicted
       N       E                     dE             d eps       ncg     rms          rms(c)
Total vdW correction in eV:    171.7477020
RMM:   1    -0.106790758847E+03   -0.30930E-02   -0.11155E-01  1067   0.467E-01    0.424E-02
Total vdW correction in eV:    171.7477101
RMM:   2    -0.106789969911E+03    0.78894E-03   -0.21070E-03  1205   0.681E-02    0.261E-02
Total vdW correction in eV:    171.7478001
RMM:   3    -0.106789938844E+03    0.31067E-04   -0.12869E-04  1019   0.202E-02    0.195E-02
Total vdW correction in eV:    171.7478081
RMM:   4    -0.106789935594E+03    0.32498E-05   -0.24909E-05   654   0.111E-02
Total vdW correction in eV:    171.7479221
Total vdW correction in eV:    171.7478499
  26 F= -.10678994E+03 E0= -.10642982E+03  d E =-.226762E-02
quench:  g(F)=  0.000E+00 g(S)=  0.000E+00 dE (1.order)= 0.000E+00
 bond charge predicted
       N       E                     dE             d eps       ncg     rms          rms(c)
Total vdW correction in eV:    171.7607180
RMM:   1    -0.107130648815E+03   -0.34071E+00   -0.41065E+01  1070   0.895E+00    0.892E-01
Total vdW correction in eV:    171.7513668
RMM:   2    -0.106842680890E+03    0.28797E+00   -0.88442E-01  1172   0.145E+00    0.102E+00
Total vdW correction in eV:    171.7575075
RMM:   3    -0.106812083952E+03    0.30597E-01   -0.71958E-02  1089   0.480E-01    0.485E-01
Total vdW correction in eV:    171.7612053
RMM:   4    -0.106810716638E+03    0.13673E-02   -0.10384E-02  1080   0.177E-01    0.354E-01
Total vdW correction in eV:    171.7638729
RMM:   5    -0.106810952491E+03   -0.23585E-03   -0.65117E-03  1060   0.147E-01    0.156E-01
Total vdW correction in eV:    171.7641884
RMM:   6    -0.106811173701E+03   -0.22121E-03   -0.35492E-03  1066   0.135E-01    0.110E-01
Total vdW correction in eV:    171.7640119
RMM:   7    -0.106810997943E+03    0.17576E-03   -0.85491E-04  1064   0.707E-02    0.266E-02
Total vdW correction in eV:    171.7638155
RMM:   8    -0.106811007516E+03   -0.95728E-05   -0.80360E-05  1003   0.184E-02
Total vdW correction in eV:    171.7635754
Total vdW correction in eV:    171.7637855
  27 F= -.10681101E+03 E0= -.10645195E+03  d E =-.210719E-01
quench:  g(F)=  0.000E+00 g(S)=  0.000E+00 dE (1.order)= 0.000E+00
 bond charge predicted
       N       E                     dE             d eps       ncg     rms          rms(c)
Total vdW correction in eV:    171.7641021
RMM:   1    -0.106814362632E+03   -0.33647E-02   -0.10947E-01  1069   0.458E-01    0.452E-02
Total vdW correction in eV:    171.7641522
RMM:   2    -0.106813455572E+03    0.90706E-03   -0.20634E-03  1261   0.627E-02    0.248E-02
Total vdW correction in eV:    171.7642611
RMM:   3    -0.106813438840E+03    0.16733E-04   -0.15473E-04  1067   0.201E-02    0.191E-02
Total vdW correction in eV:    171.7642559
RMM:   4    -0.106813443190E+03   -0.43501E-05   -0.33507E-05   694   0.124E-02
Total vdW correction in eV:    171.7642999
Total vdW correction in eV:    171.7642812
  28 F= -.10681344E+03 E0= -.10645452E+03  d E =-.243567E-02
quench:  g(F)=  0.000E+00 g(S)=  0.000E+00 dE (1.order)= 0.000E+00
 bond charge predicted
       N       E                     dE             d eps       ncg     rms          rms(c)
Total vdW correction in eV:    171.7671171
RMM:   1    -0.106903169685E+03   -0.89731E-01   -0.85209E+00  1069   0.404E+00    0.399E-01
Total vdW correction in eV:    171.7655070
RMM:   2    -0.106825530879E+03    0.77639E-01   -0.17077E-01  1253   0.571E-01    0.275E-01
Total vdW correction in eV:    171.7679757
RMM:   3    -0.106822693572E+03    0.28373E-02   -0.13155E-02  1120   0.201E-01    0.191E-01
Total vdW correction in eV:    171.7683444
RMM:   4    -0.106822258653E+03    0.43492E-03   -0.25571E-03  1110   0.947E-02    0.118E-01
Total vdW correction in eV:    171.7682126
RMM:   5    -0.106822185715E+03    0.72938E-04   -0.11020E-03  1066   0.672E-02    0.740E-02
Total vdW correction in eV:    171.7684378
RMM:   6    -0.106822116728E+03    0.68987E-04   -0.64409E-04  1063   0.568E-02    0.267E-02
Total vdW correction in eV:    171.7687383
RMM:   7    -0.106822121017E+03   -0.42884E-05   -0.67905E-05   960   0.189E-02
Total vdW correction in eV:    171.7681535
Total vdW correction in eV:    171.7685934
  29 F= -.10682212E+03 E0= -.10646433E+03  d E =-.867783E-02
quench:  g(F)=  0.000E+00 g(S)=  0.000E+00 dE (1.order)= 0.000E+00
 bond charge predicted
       N       E                     dE             d eps       ncg     rms          rms(c)
Total vdW correction in eV:    171.7688183
RMM:   1    -0.106825062157E+03   -0.29454E-02   -0.12454E-01  1069   0.477E-01    0.513E-02
Total vdW correction in eV:    171.7688670
RMM:   2    -0.106823949857E+03    0.11123E-02   -0.24341E-03  1262   0.655E-02    0.281E-02
Total vdW correction in eV:    171.7691018
RMM:   3    -0.106823931016E+03    0.18841E-04   -0.15870E-04  1031   0.208E-02    0.212E-02
Total vdW correction in eV:    171.7690650
RMM:   4    -0.106823938106E+03   -0.70893E-05   -0.31666E-05   665   0.124E-02
Total vdW correction in eV:    171.7691326
Total vdW correction in eV:    171.7690022
  30 F= -.10682394E+03 E0= -.10646626E+03  d E =-.181709E-02
quench:  g(F)=  0.000E+00 g(S)=  0.000E+00 dE (1.order)= 0.000E+00
 bond charge predicted
       N       E                     dE             d eps       ncg     rms          rms(c)
Total vdW correction in eV:    171.7706790
RMM:   1    -0.106890895235E+03   -0.66964E-01   -0.68175E+00  1071   0.354E+00    0.355E-01
Total vdW correction in eV:    171.7706233
RMM:   2    -0.106832283527E+03    0.58612E-01   -0.12936E-01  1258   0.494E-01    0.224E-01
Total vdW correction in eV:    171.7728649
RMM:   3    -0.106830340678E+03    0.19428E-02   -0.95938E-03  1097   0.173E-01    0.170E-01
Total vdW correction in eV:    171.7728841
RMM:   4    -0.106830021622E+03    0.31906E-03   -0.18629E-03  1093   0.865E-02    0.102E-01
Total vdW correction in eV:    171.7726257
RMM:   5    -0.106830094391E+03   -0.72769E-04   -0.11871E-03  1065   0.657E-02    0.752E-02
Total vdW correction in eV:    171.7729168
RMM:   6    -0.106829979054E+03    0.11534E-03   -0.51169E-04  1062   0.506E-02    0.183E-02
Total vdW correction in eV:    171.7733040
RMM:   7    -0.106829981919E+03   -0.28646E-05   -0.32152E-05   663   0.117E-02
Total vdW correction in eV:    171.7729654
Total vdW correction in eV:    171.7732039
  31 F= -.10682998E+03 E0= -.10647316E+03  d E =-.604381E-02
quench:  g(F)=  0.000E+00 g(S)=  0.000E+00 dE (1.order)= 0.000E+00
 bond charge predicted
       N       E                     dE             d eps       ncg     rms          rms(c)
Total vdW correction in eV:    171.7734830
RMM:   1    -0.106832735135E+03   -0.27561E-02   -0.12632E-01  1062   0.489E-01    0.434E-02
Total vdW correction in eV:    171.7733629
RMM:   2    -0.106832272894E+03    0.46224E-03   -0.21369E-03  1131   0.707E-02    0.286E-02
Total vdW correction in eV:    171.7735418
RMM:   3    -0.106832260774E+03    0.12120E-04   -0.16570E-04  1017   0.207E-02    0.218E-02
Total vdW correction in eV:    171.7735284
RMM:   4    -0.106832266514E+03   -0.57396E-05   -0.30371E-05   646   0.112E-02
Total vdW correction in eV:    171.7736304
Total vdW correction in eV:    171.7735151
  32 F= -.10683227E+03 E0= -.10647558E+03  d E =-.228459E-02
quench:  g(F)=  0.000E+00 g(S)=  0.000E+00 dE (1.order)= 0.000E+00
 bond charge predicted
       N       E                     dE             d eps       ncg     rms          rms(c)
Total vdW correction in eV:    171.7755766
RMM:   1    -0.106868453644E+03   -0.36193E-01   -0.71147E+00  1062   0.367E+00    0.329E-01
Total vdW correction in eV:    171.7738033
RMM:   2    -0.106841256718E+03    0.27197E-01   -0.12080E-01  1134   0.536E-01    0.249E-01
Total vdW correction in eV:    171.7754132
RMM:   3    -0.106839779250E+03    0.14775E-02   -0.10009E-02  1094   0.161E-01    0.178E-01
Total vdW correction in eV:    171.7757666
RMM:   4    -0.106839624251E+03    0.15500E-03   -0.17946E-03  1079   0.787E-02    0.123E-01
Total vdW correction in eV:    171.7759497
RMM:   5    -0.106839733739E+03   -0.10949E-03   -0.13347E-03  1067   0.677E-02    0.678E-02
Total vdW correction in eV:    171.7760097
RMM:   6    -0.106839682055E+03    0.51684E-04   -0.57449E-04  1066   0.541E-02    0.280E-02
Total vdW correction in eV:    171.7761069
RMM:   7    -0.106839669894E+03    0.12162E-04   -0.62239E-05   846   0.177E-02    0.971E-03
Total vdW correction in eV:    171.7760160
RMM:   8    -0.106839674786E+03   -0.48927E-05   -0.10751E-05   616   0.716E-03
Total vdW correction in eV:    171.7761631
Total vdW correction in eV:    171.7760225
  33 F= -.10683967E+03 E0= -.10648390E+03  d E =-.740827E-02
quench:  g(F)=  0.000E+00 g(S)=  0.000E+00 dE (1.order)= 0.000E+00
 bond charge predicted
       N       E                     dE             d eps       ncg     rms          rms(c)
Total vdW correction in eV:    171.7759477
RMM:   1    -0.106841925151E+03   -0.22553E-02   -0.10976E-01  1060   0.479E-01    0.418E-02
Total vdW correction in eV:    171.7757856
RMM:   2    -0.106841468859E+03    0.45629E-03   -0.17636E-03  1120   0.704E-02    0.272E-02
Total vdW correction in eV:    171.7757774
RMM:   3    -0.106841450409E+03    0.18450E-04   -0.14721E-04  1036   0.214E-02    0.203E-02
Total vdW correction in eV:    171.7757868
RMM:   4    -0.106841447711E+03    0.26986E-05   -0.24806E-05   646   0.110E-02
Total vdW correction in eV:    171.7759851
Total vdW correction in eV:    171.7758596
  34 F= -.10684145E+03 E0= -.10648576E+03  d E =-.177292E-02
quench:  g(F)=  0.000E+00 g(S)=  0.000E+00 dE (1.order)= 0.000E+00
 bond charge predicted
       N       E                     dE             d eps       ncg     rms          rms(c)
Total vdW correction in eV:    171.7752599
RMM:   1    -0.106879381646E+03   -0.37931E-01   -0.70482E+00  1060   0.384E+00    0.343E-01
Total vdW correction in eV:    171.7721396
RMM:   2    -0.106849979294E+03    0.29402E-01   -0.11520E-01  1117   0.571E-01    0.277E-01
Total vdW correction in eV:    171.7735438
RMM:   3    -0.106848071441E+03    0.19079E-02   -0.99763E-03  1081   0.178E-01    0.171E-01
Total vdW correction in eV:    171.7739260
RMM:   4    -0.106847859865E+03    0.21158E-03   -0.16144E-03  1071   0.833E-02    0.118E-01
Total vdW correction in eV:    171.7740991
RMM:   5    -0.106847955536E+03   -0.95671E-04   -0.92716E-04  1066   0.616E-02    0.676E-02
Total vdW correction in eV:    171.7742170
RMM:   6    -0.106847935094E+03    0.20443E-04   -0.51578E-04  1067   0.531E-02    0.278E-02
Total vdW correction in eV:    171.7743008
RMM:   7    -0.106847920845E+03    0.14249E-04   -0.55459E-05   732   0.158E-02    0.110E-02
Total vdW correction in eV:    171.7742225
RMM:   8    -0.106847922246E+03   -0.14008E-05   -0.17261E-05   631   0.648E-03
Total vdW correction in eV:    171.7742152
Total vdW correction in eV:    171.7742222
  35 F= -.10684792E+03 E0= -.10649283E+03  d E =-.647454E-02
quench:  g(F)=  0.000E+00 g(S)=  0.000E+00 dE (1.order)= 0.000E+00
 bond charge predicted
       N       E                     dE             d eps       ncg     rms          rms(c)
Total vdW correction in eV:    171.7741810
RMM:   1    -0.106850687873E+03   -0.27670E-02   -0.10603E-01  1061   0.462E-01    0.449E-02
Total vdW correction in eV:    171.7742311
RMM:   2    -0.106849844842E+03    0.84303E-03   -0.20352E-03  1236   0.640E-02    0.280E-02
Total vdW correction in eV:    171.7742929
RMM:   3    -0.106849811110E+03    0.33732E-04   -0.14661E-04  1057   0.202E-02    0.196E-02
Total vdW correction in eV:    171.7743081
RMM:   4    -0.106849808079E+03    0.30310E-05   -0.31186E-05   687   0.120E-02
Total vdW correction in eV:    171.7742683
Total vdW correction in eV:    171.7742977
  36 F= -.10684981E+03 E0= -.10649484E+03  d E =-.188583E-02
quench:  g(F)=  0.000E+00 g(S)=  0.000E+00 dE (1.order)= 0.000E+00
 bond charge predicted
       N       E                     dE             d eps       ncg     rms          rms(c)
Total vdW correction in eV:    171.7741819
RMM:   1    -0.106860223632E+03   -0.10413E-01   -0.93954E-01  1062   0.137E+00    0.132E-01
Total vdW correction in eV:    171.7741794
RMM:   2    -0.106852591189E+03    0.76324E-02   -0.17702E-02  1251   0.187E-01    0.787E-02
Total vdW correction in eV:    171.7745287
RMM:   3    -0.106852271543E+03    0.31965E-03   -0.12136E-03  1151   0.549E-02    0.563E-02
Total vdW correction in eV:    171.7745432
RMM:   4    -0.106852233671E+03    0.37872E-04   -0.28466E-04  1102   0.343E-02    0.383E-02
Total vdW correction in eV:    171.7744294
RMM:   5    -0.106852224376E+03    0.92958E-05   -0.13077E-04   996   0.224E-02    0.235E-02
Total vdW correction in eV:    171.7745763
RMM:   6    -0.106852213629E+03    0.10747E-04   -0.56286E-05   860   0.171E-02    0.818E-03
Total vdW correction in eV:    171.7746093
RMM:   7    -0.106852214493E+03   -0.86450E-06   -0.56894E-06   590   0.578E-03
Total vdW correction in eV:    171.7745369
Total vdW correction in eV:    171.7745523
  37 F= -.10685221E+03 E0= -.10649770E+03  d E =-.240641E-02
quench:  g(F)=  0.000E+00 g(S)=  0.000E+00 dE (1.order)= 0.000E+00
 bond charge predicted
       N       E                     dE             d eps       ncg     rms          rms(c)
Total vdW correction in eV:    171.7748473
RMM:   1    -0.106854829340E+03   -0.26157E-02   -0.14032E-01  1065   0.519E-01    0.565E-02
Total vdW correction in eV:    171.7751377
RMM:   2    -0.106853777186E+03    0.10522E-02   -0.26752E-03  1248   0.701E-02    0.298E-02
Total vdW correction in eV:    171.7752535
RMM:   3    -0.106853726258E+03    0.50928E-04   -0.16943E-04  1065   0.212E-02    0.232E-02
Total vdW correction in eV:    171.7752494
RMM:   4    -0.106853718258E+03    0.80000E-05   -0.35476E-05   705   0.129E-02
Total vdW correction in eV:    171.7752201
Total vdW correction in eV:    171.7752012
  38 F= -.10685372E+03 E0= -.10649926E+03  d E =-.150377E-02
quench:  g(F)=  0.000E+00 g(S)=  0.000E+00 dE (1.order)= 0.000E+00
 bond charge predicted
       N       E                     dE             d eps       ncg     rms          rms(c)
Total vdW correction in eV:    171.7760810
RMM:   1    -0.106865878488E+03   -0.12152E-01   -0.12605E+00  1065   0.155E+00    0.167E-01
Total vdW correction in eV:    171.7768273
RMM:   2    -0.106856137297E+03    0.97412E-02   -0.23473E-02  1251   0.209E-01    0.858E-02
Total vdW correction in eV:    171.7773000
RMM:   3    -0.106855704392E+03    0.43291E-03   -0.14264E-03  1129   0.603E-02    0.686E-02
Total vdW correction in eV:    171.7772908
RMM:   4    -0.106855634449E+03    0.69942E-04   -0.33110E-04  1095   0.379E-02    0.451E-02
Total vdW correction in eV:    171.7771117
RMM:   5    -0.106855625196E+03    0.92537E-05   -0.21926E-04  1036   0.253E-02    0.278E-02
Total vdW correction in eV:    171.7773560
RMM:   6    -0.106855610854E+03    0.14342E-04   -0.91072E-05   992   0.208E-02    0.109E-02
Total vdW correction in eV:    171.7774338
RMM:   7    -0.106855611101E+03   -0.24702E-06   -0.69919E-06   599   0.563E-03
Total vdW correction in eV:    171.7774044
Total vdW correction in eV:    171.7774005
  39 F= -.10685561E+03 E0= -.10650147E+03  d E =-.189284E-02
quench:  g(F)=  0.000E+00 g(S)=  0.000E+00 dE (1.order)= 0.000E+00
 bond charge predicted
       N       E                     dE             d eps       ncg     rms          rms(c)
Total vdW correction in eV:    171.7782690
RMM:   1    -0.106857206356E+03   -0.15955E-02   -0.12872E-01  1064   0.513E-01    0.410E-02
Total vdW correction in eV:    171.7783511
RMM:   2    -0.106856745804E+03    0.46055E-03   -0.18181E-03  1145   0.687E-02    0.267E-02
Total vdW correction in eV:    171.7784612
RMM:   3    -0.106856727742E+03    0.18062E-04   -0.13920E-04  1026   0.199E-02    0.202E-02
Total vdW correction in eV:    171.7784808
RMM:   4    -0.106856728276E+03   -0.53406E-06   -0.26088E-05   654   0.107E-02
Total vdW correction in eV:    171.7784969
Total vdW correction in eV:    171.7784757
  40 F= -.10685673E+03 E0= -.10650270E+03  d E =-.111718E-02
quench:  g(F)=  0.000E+00 g(S)=  0.000E+00 dE (1.order)= 0.000E+00
 bond charge predicted
       N       E                     dE             d eps       ncg     rms          rms(c)
Total vdW correction in eV:    171.7807898
RMM:   1    -0.106861483729E+03   -0.47560E-02   -0.91164E-01  1064   0.137E+00    0.112E-01
Total vdW correction in eV:    171.7809065
RMM:   2    -0.106858126946E+03    0.33568E-02   -0.12751E-02  1149   0.182E-01    0.693E-02
Total vdW correction in eV:    171.7812413
RMM:   3    -0.106857983728E+03    0.14322E-03   -0.97945E-04  1112   0.521E-02    0.542E-02
Total vdW correction in eV:    171.7813074
RMM:   4    -0.106857956777E+03    0.26951E-04   -0.19371E-04  1093   0.284E-02    0.309E-02
Total vdW correction in eV:    171.7812432
RMM:   5    -0.106857974369E+03   -0.17592E-04   -0.11699E-04   948   0.195E-02    0.229E-02
Total vdW correction in eV:    171.7813676
RMM:   6    -0.106857965272E+03    0.90970E-05   -0.41015E-05   739   0.149E-02
Total vdW correction in eV:    171.7815167
Total vdW correction in eV:    171.7814175
  41 F= -.10685797E+03 E0= -.10650430E+03  d E =-.123700E-02
quench:  g(F)=  0.000E+00 g(S)=  0.000E+00 dE (1.order)= 0.000E+00
 bond charge predicted
       N       E                     dE             d eps       ncg     rms          rms(c)
Total vdW correction in eV:    171.7821172
RMM:   1    -0.106859392312E+03   -0.14179E-02   -0.11581E-01  1060   0.500E-01    0.366E-02
Total vdW correction in eV:    171.7820315
RMM:   2    -0.106859023245E+03    0.36907E-03   -0.15391E-03  1096   0.699E-02    0.265E-02
Total vdW correction in eV:    171.7820413
RMM:   3    -0.106859004407E+03    0.18837E-04   -0.13070E-04  1004   0.208E-02    0.179E-02
Total vdW correction in eV:    171.7820524
RMM:   4    -0.106859003357E+03    0.10502E-05   -0.17863E-05   639   0.907E-03
Total vdW correction in eV:    171.7822540
Total vdW correction in eV:    171.7821292
  42 F= -.10685900E+03 E0= -.10650541E+03  d E =-.103809E-02
quench:  g(F)=  0.000E+00 g(S)=  0.000E+00 dE (1.order)= 0.000E+00
 bond charge predicted
       N       E                     dE             d eps       ncg     rms          rms(c)
Total vdW correction in eV:    171.7861945
RMM:   1    -0.106875170346E+03   -0.16166E-01   -0.38907E+00  1060   0.290E+00    0.213E-01
Total vdW correction in eV:    171.7849302
RMM:   2    -0.106862411995E+03    0.12758E-01   -0.50400E-02  1097   0.394E-01    0.160E-01
Total vdW correction in eV:    171.7858498
RMM:   3    -0.106861777778E+03    0.63422E-03   -0.41816E-03  1073   0.112E-01    0.110E-01
Total vdW correction in eV:    171.7860384
RMM:   4    -0.106861695418E+03    0.82360E-04   -0.68467E-04  1078   0.535E-02    0.739E-02
Total vdW correction in eV:    171.7861878
RMM:   5    -0.106861744375E+03   -0.48957E-04   -0.46187E-04  1067   0.420E-02    0.477E-02
Total vdW correction in eV:    171.7863904
RMM:   6    -0.106861718938E+03    0.25437E-04   -0.21346E-04  1065   0.338E-02    0.185E-02
Total vdW correction in eV:    171.7864694
RMM:   7    -0.106861712447E+03    0.64914E-05   -0.20729E-05   646   0.721E-03
Total vdW correction in eV:    171.7861859
Total vdW correction in eV:    171.7863940
  43 F= -.10686171E+03 E0= -.10650841E+03  d E =-.270909E-02
quench:  g(F)=  0.000E+00 g(S)=  0.000E+00 dE (1.order)= 0.000E+00
 bond charge predicted
       N       E                     dE             d eps       ncg     rms          rms(c)
Total vdW correction in eV:    171.7868138
RMM:   1    -0.106863370821E+03   -0.16519E-02   -0.12181E-01  1062   0.495E-01    0.445E-02
Total vdW correction in eV:    171.7867725
RMM:   2    -0.106862627737E+03    0.74308E-03   -0.18787E-03  1153   0.642E-02    0.257E-02
Total vdW correction in eV:    171.7869238
RMM:   3    -0.106862599815E+03    0.27922E-04   -0.12767E-04  1035   0.201E-02    0.187E-02
Total vdW correction in eV:    171.7869461
RMM:   4    -0.106862598027E+03    0.17876E-05   -0.27079E-05   646   0.116E-02
Total vdW correction in eV:    171.7870468
Total vdW correction in eV:    171.7870006
  44 F= -.10686260E+03 E0= -.10650942E+03  d E =-.885580E-03
quench:  g(F)=  0.000E+00 g(S)=  0.000E+00 dE (1.order)= 0.000E+00
 bond charge predicted
       N       E                     dE             d eps       ncg     rms          rms(c)
Total vdW correction in eV:    171.7882696
RMM:   1    -0.106870700867E+03   -0.81011E-02   -0.10983E+00  1062   0.149E+00    0.139E-01
Total vdW correction in eV:    171.7880101
RMM:   2    -0.106864002919E+03    0.66979E-02   -0.16977E-02  1153   0.191E-01    0.746E-02
Total vdW correction in eV:    171.7885088
RMM:   3    -0.106863743317E+03    0.25960E-03   -0.11753E-03  1111   0.580E-02    0.549E-02
Total vdW correction in eV:    171.7885128
RMM:   4    -0.106863713206E+03    0.30111E-04   -0.27053E-04  1087   0.347E-02    0.343E-02
Total vdW correction in eV:    171.7886521
RMM:   5    -0.106863714784E+03   -0.15779E-05   -0.11844E-04   903   0.183E-02    0.208E-02
Total vdW correction in eV:    171.7887430
RMM:   6    -0.106863705845E+03    0.89390E-05   -0.34733E-05   673   0.132E-02
Total vdW correction in eV:    171.7888369
Total vdW correction in eV:    171.7887676
  45 F= -.10686371E+03 E0= -.10651089E+03  d E =-.110782E-02
quench:  g(F)=  0.000E+00 g(S)=  0.000E+00 dE (1.order)= 0.000E+00
 bond charge predicted
       N       E                     dE             d eps       ncg     rms          rms(c)
Total vdW correction in eV:    171.7891875
RMM:   1    -0.106865193618E+03   -0.14788E-02   -0.13406E-01  1060   0.519E-01    0.408E-02
Total vdW correction in eV:    171.7892936
RMM:   2    -0.106864555697E+03    0.63792E-03   -0.19521E-03  1164   0.690E-02    0.278E-02
Total vdW correction in eV:    171.7893761
RMM:   3    -0.106864528456E+03    0.27241E-04   -0.14858E-04  1050   0.205E-02    0.209E-02
Total vdW correction in eV:    171.7894093
RMM:   4    -0.106864523743E+03    0.47133E-05   -0.23905E-05   654   0.972E-03
Total vdW correction in eV:    171.7894376
Total vdW correction in eV:    171.7893993
  46 F= -.10686452E+03 E0= -.10651180E+03  d E =-.817898E-03
quench:  g(F)=  0.000E+00 g(S)=  0.000E+00 dE (1.order)= 0.000E+00
 bond charge predicted
       N       E                     dE             d eps       ncg     rms          rms(c)
Total vdW correction in eV:    171.7909922
RMM:   1    -0.106875608492E+03   -0.11080E-01   -0.19245E+00  1060   0.197E+00    0.157E-01
Total vdW correction in eV:    171.7912528
RMM:   2    -0.106866259921E+03    0.93486E-02   -0.26980E-02  1175   0.256E-01    0.995E-02
Total vdW correction in eV:    171.7919423
RMM:   3    -0.106865918711E+03    0.34121E-03   -0.19081E-03  1108   0.710E-02    0.782E-02
Total vdW correction in eV:    171.7920334
RMM:   4    -0.106865852647E+03    0.66063E-04   -0.40005E-04  1090   0.385E-02    0.506E-02
Total vdW correction in eV:    171.7918375
RMM:   5    -0.106865877738E+03   -0.25091E-04   -0.32437E-04  1063   0.310E-02    0.349E-02
Total vdW correction in eV:    171.7921233
RMM:   6    -0.106865854823E+03    0.22915E-04   -0.11389E-04  1033   0.233E-02    0.113E-02
Total vdW correction in eV:    171.7922254
RMM:   7    -0.106865856856E+03   -0.20327E-05   -0.63839E-06   603   0.539E-03
Total vdW correction in eV:    171.7921435
Total vdW correction in eV:    171.7921728
  47 F= -.10686586E+03 E0= -.10651366E+03  d E =-.133311E-02
quench:  g(F)=  0.000E+00 g(S)=  0.000E+00 dE (1.order)= 0.000E+00
 bond charge predicted
       N       E                     dE             d eps       ncg     rms          rms(c)
Total vdW correction in eV:    171.7922984
RMM:   1    -0.106867167434E+03   -0.13126E-02   -0.11809E-01  1064   0.496E-01    0.377E-02
Total vdW correction in eV:    171.7923182
RMM:   2    -0.106866621400E+03    0.54603E-03   -0.16521E-03  1165   0.656E-02    0.232E-02
Total vdW correction in eV:    171.7923970
RMM:   3    -0.106866604534E+03    0.16867E-04   -0.10047E-04   965   0.177E-02    0.165E-02
Total vdW correction in eV:    171.7923692
RMM:   4    -0.106866608172E+03   -0.36380E-05   -0.21284E-05   650   0.102E-02
Total vdW correction in eV:    171.7924331
Total vdW correction in eV:    171.7923626
  48 F= -.10686661E+03 E0= -.10651449E+03  d E =-.751315E-03
quench:  g(F)=  0.000E+00 g(S)=  0.000E+00 dE (1.order)= 0.000E+00
 bond charge predicted
       N       E                     dE             d eps       ncg     rms          rms(c)
Total vdW correction in eV:    171.7930924
RMM:   1    -0.106887853805E+03   -0.21249E-01   -0.38343E+00  1064   0.283E+00    0.209E-01
Total vdW correction in eV:    171.7924934
RMM:   2    -0.106869307208E+03    0.18547E-01   -0.54776E-02  1166   0.374E-01    0.136E-01
Total vdW correction in eV:    171.7935097
RMM:   3    -0.106868453653E+03    0.85355E-03   -0.33352E-03  1109   0.103E-01    0.973E-02
Total vdW correction in eV:    171.7934167
RMM:   4    -0.106868390499E+03    0.63154E-04   -0.68360E-04  1097   0.524E-02    0.612E-02
Total vdW correction in eV:    171.7931819
RMM:   5    -0.106868426508E+03   -0.36009E-04   -0.38749E-04  1069   0.387E-02    0.423E-02
Total vdW correction in eV:    171.7932871
RMM:   6    -0.106868392286E+03    0.34222E-04   -0.14331E-04  1048   0.277E-02    0.105E-02
Total vdW correction in eV:    171.7935449
RMM:   7    -0.106868391935E+03    0.35047E-06   -0.14263E-05   623   0.726E-03
Total vdW correction in eV:    171.7929733
Total vdW correction in eV:    171.7934697
  49 F= -.10686839E+03 E0= -.10651677E+03  d E =-.178376E-02
quench:  g(F)=  0.000E+00 g(S)=  0.000E+00 dE (1.order)= 0.000E+00
 bond charge predicted
       N       E                     dE             d eps       ncg     rms          rms(c)
Total vdW correction in eV:    171.7938653
RMM:   1    -0.106869365800E+03   -0.97351E-03   -0.11102E-01  1060   0.482E-01    0.407E-02
Total vdW correction in eV:    171.7936615
RMM:   2    -0.106868930349E+03    0.43545E-03   -0.16020E-03  1132   0.626E-02    0.250E-02
Total vdW correction in eV:    171.7938524
RMM:   3    -0.106868913985E+03    0.16364E-04   -0.14008E-04  1005   0.194E-02    0.191E-02
Total vdW correction in eV:    171.7938366
RMM:   4    -0.106868911025E+03    0.29597E-05   -0.25549E-05   636   0.109E-02
Total vdW correction in eV:    171.7938556
Total vdW correction in eV:    171.7938250
  50 F= -.10686891E+03 E0= -.10651745E+03  d E =-.519090E-03
quench:  g(F)=  0.000E+00 g(S)=  0.000E+00 dE (1.order)= 0.000E+00
 bond charge predicted
       N       E                     dE             d eps       ncg     rms          rms(c)
Total vdW correction in eV:    171.7945027
RMM:   1    -0.106870604423E+03   -0.16904E-02   -0.32322E-01  1060   0.823E-01    0.699E-02
Total vdW correction in eV:    171.7943046
RMM:   2    -0.106869331526E+03    0.12729E-02   -0.45991E-03  1135   0.104E-01    0.413E-02
Total vdW correction in eV:    171.7944683
RMM:   3    -0.106869284016E+03    0.47510E-04   -0.40322E-04  1086   0.310E-02    0.340E-02
Total vdW correction in eV:    171.7944604
RMM:   4    -0.106869270497E+03    0.13520E-04   -0.77658E-05   907   0.183E-02    0.212E-02
Total vdW correction in eV:    171.7945081
RMM:   5    -0.106869273019E+03   -0.25223E-05   -0.45438E-05   694   0.127E-02
Total vdW correction in eV:    171.7944904
Total vdW correction in eV:    171.7945271
  51 F= -.10686927E+03 E0= -.10651797E+03  d E =-.361994E-03
quench:  g(F)=  0.000E+00 g(S)=  0.000E+00 dE (1.order)= 0.000E+00
 bond charge predicted
       N       E                     dE             d eps       ncg     rms          rms(c)
Total vdW correction in eV:    171.7952532
RMM:   1    -0.106870637682E+03   -0.13672E-02   -0.12534E-01  1060   0.499E-01    0.431E-02
Total vdW correction in eV:    171.7952385
RMM:   2    -0.106869995872E+03    0.64181E-03   -0.18555E-03  1131   0.642E-02    0.241E-02
Total vdW correction in eV:    171.7952969
RMM:   3    -0.106869975388E+03    0.20484E-04   -0.13021E-04   836   0.170E-02    0.194E-02
Total vdW correction in eV:    171.7953200
RMM:   4    -0.106869974494E+03    0.89439E-06   -0.34191E-05   673   0.125E-02
Total vdW correction in eV:    171.7955702
Total vdW correction in eV:    171.7954305
  52 F= -.10686997E+03 E0= -.10651886E+03  d E =-.701475E-03
quench:  g(F)=  0.000E+00 g(S)=  0.000E+00 dE (1.order)= 0.000E+00
 bond charge predicted
       N       E                     dE             d eps       ncg     rms          rms(c)
Total vdW correction in eV:    171.7990053
RMM:   1    -0.106887741896E+03   -0.17767E-01   -0.30231E+00  1060   0.245E+00    0.206E-01
Total vdW correction in eV:    171.7982927
RMM:   2    -0.106872231433E+03    0.15510E-01   -0.44797E-02  1134   0.314E-01    0.127E-01
Total vdW correction in eV:    171.7993543
RMM:   3    -0.106871622022E+03    0.60941E-03   -0.31766E-03  1097   0.888E-02    0.978E-02
Total vdW correction in eV:    171.7994567
RMM:   4    -0.106871557535E+03    0.64487E-04   -0.75908E-04  1082   0.529E-02    0.674E-02
Total vdW correction in eV:    171.7997034
RMM:   5    -0.106871580036E+03   -0.22501E-04   -0.43317E-04  1062   0.371E-02    0.427E-02
Total vdW correction in eV:    171.7999113
RMM:   6    -0.106871546129E+03    0.33908E-04   -0.17059E-04  1052   0.292E-02    0.183E-02
Total vdW correction in eV:    171.7999805
RMM:   7    -0.106871541364E+03    0.47649E-05   -0.20040E-05   642   0.721E-03
Total vdW correction in eV:    171.7997196
Total vdW correction in eV:    171.7998790
  53 F= -.10687154E+03 E0= -.10652085E+03  d E =-.156687E-02
quench:  g(F)=  0.000E+00 g(S)=  0.000E+00 dE (1.order)= 0.000E+00
 bond charge predicted
       N       E                     dE             d eps       ncg     rms          rms(c)
Total vdW correction in eV:    171.8007360
RMM:   1    -0.106872692775E+03   -0.11466E-02   -0.12693E-01  1060   0.503E-01    0.410E-02
Total vdW correction in eV:    171.8008481
RMM:   2    -0.106872065780E+03    0.62700E-03   -0.18135E-03  1169   0.643E-02    0.247E-02
Total vdW correction in eV:    171.8010085
RMM:   3    -0.106872047222E+03    0.18557E-04   -0.12464E-04   883   0.176E-02    0.194E-02
[...]
Total vdW correction in eV:    171.8373233
RMM:   4    -0.106891085003E+03    0.26817E-05   -0.28752E-05   637   0.126E-02
Total vdW correction in eV:    171.8374521
Total vdW correction in eV:    171.8373736
 120 F= -.10689109E+03 E0= -.10654672E+03  d E =-.144301E-03
quench:  g(F)=  0.000E+00 g(S)=  0.000E+00 dE (1.order)= 0.000E+00
 bond charge predicted
       N       E                     dE             d eps       ncg     rms          rms(c)
Total vdW correction in eV:    171.8374886
RMM:   1    -0.106891107785E+03   -0.20100E-04   -0.38137E-03  1059   0.881E-02    0.925E-03
Total vdW correction in eV:    171.8375054
RMM:   2    -0.106891086554E+03    0.21231E-04   -0.60823E-05   761   0.137E-02    0.630E-03
Total vdW correction in eV:    171.8375157
RMM:   3    -0.106891085120E+03    0.14345E-05   -0.63374E-06   573   0.580E-03
Total vdW correction in eV:    171.8374901
Total vdW correction in eV:    171.8375170
 121 F= -.10689109E+03 E0= -.10654669E+03  d E =-.116692E-06
quench:  g(F)=  0.000E+00 g(S)=  0.000E+00 dE (1.order)= 0.000E+00
 bond charge predicted
       N       E                     dE             d eps       ncg     rms          rms(c)
Total vdW correction in eV:    171.8383792
RMM:   1    -0.106892087797E+03   -0.10012E-02   -0.10699E-01  1061   0.446E-01    0.425E-02
Total vdW correction in eV:    171.8383807
RMM:   2    -0.106891243767E+03    0.84403E-03   -0.17456E-03  1162   0.582E-02    0.240E-02
Total vdW correction in eV:    171.8384477
RMM:   3    -0.106891219134E+03    0.24633E-04   -0.10481E-04   836   0.161E-02    0.180E-02
Total vdW correction in eV:    171.8384617
RMM:   4    -0.106891218850E+03    0.28337E-06   -0.31434E-05   638   0.129E-02
Total vdW correction in eV:    171.8385999
Total vdW correction in eV:    171.8385287
 122 F= -.10689122E+03 E0= -.10654687E+03  d E =-.133731E-03
quench:  g(F)=  0.000E+00 g(S)=  0.000E+00 dE (1.order)= 0.000E+00
 bond charge predicted
       N       E                     dE             d eps       ncg     rms          rms(c)
Total vdW correction in eV:    171.8390610
RMM:   1    -0.106891577778E+03   -0.35864E-03   -0.40619E-02  1061   0.275E-01    0.265E-02
Total vdW correction in eV:    171.8390426
RMM:   2    -0.106891252540E+03    0.32524E-03   -0.66548E-04  1173   0.355E-02    0.144E-02
Total vdW correction in eV:    171.8390896
RMM:   3    -0.106891243915E+03    0.86247E-05   -0.40775E-05   678   0.892E-03
Total vdW correction in eV:    171.8390384
Total vdW correction in eV:    171.8390915
 123 F= -.10689124E+03 E0= -.10654686E+03  d E =-.250647E-04
quench:  g(F)=  0.000E+00 g(S)=  0.000E+00 dE (1.order)= 0.000E+00
 bond charge predicted
       N       E                     dE             d eps       ncg     rms          rms(c)
Total vdW correction in eV:    171.8394859
RMM:   1    -0.106892895816E+03   -0.16433E-02   -0.12237E-01  1072   0.435E-01    0.614E-02
Total vdW correction in eV:    171.8393754
RMM:   2    -0.106891434851E+03    0.14610E-02   -0.25991E-03  1248   0.596E-02    0.304E-02
Total vdW correction in eV:    171.8394036
RMM:   3    -0.106891401929E+03    0.32923E-04   -0.15995E-04   987   0.189E-02    0.226E-02
Total vdW correction in eV:    171.8394160
RMM:   4    -0.106891401331E+03    0.59791E-06   -0.45754E-05   745   0.150E-02
Total vdW correction in eV:    171.8396048
Total vdW correction in eV:    171.8395020
 124 F= -.10689140E+03 E0= -.10654708E+03  d E =-.157416E-03
quench:  g(F)=  0.000E+00 g(S)=  0.000E+00 dE (1.order)= 0.000E+00
 bond charge predicted
       N       E                     dE             d eps       ncg     rms          rms(c)
Total vdW correction in eV:    171.8398958
RMM:   1    -0.106892954535E+03   -0.15526E-02   -0.12127E-01  1073   0.433E-01    0.626E-02
Total vdW correction in eV:    171.8397069
RMM:   2    -0.106891478733E+03    0.14758E-02   -0.25441E-03  1270   0.573E-02    0.279E-02
Total vdW correction in eV:    171.8397719
RMM:   3    -0.106891453828E+03    0.24905E-04   -0.15142E-04   849   0.167E-02    0.244E-02
Total vdW correction in eV:    171.8397683
RMM:   4    -0.106891448711E+03    0.51171E-05   -0.41269E-05   731   0.145E-02
Total vdW correction in eV:    171.8399340
Total vdW correction in eV:    171.8398407
 125 F= -.10689145E+03 E0= -.10654713E+03  d E =-.473803E-04
quench:  g(F)=  0.000E+00 g(S)=  0.000E+00 dE (1.order)= 0.000E+00
 bond charge predicted
       N       E                     dE             d eps       ncg     rms          rms(c)
Total vdW correction in eV:    171.8400729
RMM:   1    -0.106893089796E+03   -0.16360E-02   -0.11305E-01  1064   0.424E-01    0.535E-02
Total vdW correction in eV:    171.8400288
RMM:   2    -0.106891653036E+03    0.14368E-02   -0.24049E-03  1299   0.576E-02    0.265E-02
Total vdW correction in eV:    171.8400664
RMM:   3    -0.106891624999E+03    0.28037E-04   -0.12893E-04   823   0.158E-02    0.198E-02
Total vdW correction in eV:    171.8400781
RMM:   4    -0.106891625774E+03   -0.77550E-06   -0.37204E-05   677   0.134E-02
Total vdW correction in eV:    171.8400551
Total vdW correction in eV:    171.8400830
 126 F= -.10689163E+03 E0= -.10654726E+03  d E =-.177064E-03
quench:  g(F)=  0.000E+00 g(S)=  0.000E+00 dE (1.order)= 0.000E+00
 bond charge predicted
       N       E                     dE             d eps       ncg     rms          rms(c)
Total vdW correction in eV:    171.8408979
RMM:   1    -0.106909824081E+03   -0.18199E-01   -0.13834E+00  1062   0.148E+00    0.176E-01
Total vdW correction in eV:    171.8407082
RMM:   2    -0.106892288318E+03    0.17536E-01   -0.29203E-02  1302   0.199E-01    0.883E-02
Total vdW correction in eV:    171.8410221
RMM:   3    -0.106891887179E+03    0.40114E-03   -0.14836E-03  1125   0.503E-02    0.611E-02
Total vdW correction in eV:    171.8409658
RMM:   4    -0.106891914511E+03   -0.27332E-04   -0.43844E-04  1089   0.410E-02    0.431E-02
Total vdW correction in eV:    171.8410557
RMM:   5    -0.106891910110E+03    0.44012E-05   -0.17228E-04  1054   0.271E-02    0.133E-02
Total vdW correction in eV:    171.8411007
RMM:   6    -0.106891908589E+03    0.15208E-05   -0.19343E-05   644   0.838E-03
Total vdW correction in eV:    171.8409769
Total vdW correction in eV:    171.8410790
 127 F= -.10689191E+03 E0= -.10654769E+03  d E =-.282815E-03
quench:  g(F)=  0.000E+00 g(S)=  0.000E+00 dE (1.order)= 0.000E+00
 bond charge predicted
       N       E                     dE             d eps       ncg     rms          rms(c)
Total vdW correction in eV:    171.8410059
RMM:   1    -0.106893584638E+03   -0.16745E-02   -0.10418E-01  1063   0.393E-01    0.529E-02
Total vdW correction in eV:    171.8409176
RMM:   2    -0.106892115493E+03    0.14691E-02   -0.24601E-03  1353   0.549E-02    0.276E-02
Total vdW correction in eV:    171.8409766
RMM:   3    -0.106892087608E+03    0.27885E-04   -0.14342E-04   843   0.156E-02    0.196E-02
Total vdW correction in eV:    171.8409241
RMM:   4    -0.106892091554E+03   -0.39463E-05   -0.40124E-05   678   0.138E-02
Total vdW correction in eV:    171.8410452
Total vdW correction in eV:    171.8409349
 128 F= -.10689209E+03 E0= -.10654789E+03  d E =-.182965E-03
quench:  g(F)=  0.000E+00 g(S)=  0.000E+00 dE (1.order)= 0.000E+00
 bond charge predicted
       N       E                     dE             d eps       ncg     rms          rms(c)
Total vdW correction in eV:    171.8407886
RMM:   1    -0.106898349156E+03   -0.62615E-02   -0.42321E-01  1062   0.794E-01    0.107E-01
Total vdW correction in eV:    171.8406737
RMM:   2    -0.106892361095E+03    0.59881E-02   -0.99863E-03  1381   0.108E-01    0.530E-02
Total vdW correction in eV:    171.8406768
RMM:   3    -0.106892242072E+03    0.11902E-03   -0.54153E-04  1086   0.240E-02    0.365E-02
Total vdW correction in eV:    171.8406353
RMM:   4    -0.106892258932E+03   -0.16860E-04   -0.14346E-04  1080   0.219E-02    0.240E-02
Total vdW correction in eV:    171.8406524
RMM:   5    -0.106892256639E+03    0.22931E-05   -0.63797E-05   975   0.175E-02
Total vdW correction in eV:    171.8406689
Total vdW correction in eV:    171.8406612
 129 F= -.10689226E+03 E0= -.10654818E+03  d E =-.165085E-03
quench:  g(F)=  0.000E+00 g(S)=  0.000E+00 dE (1.order)= 0.000E+00
 bond charge predicted
       N       E                     dE             d eps       ncg     rms          rms(c)
Total vdW correction in eV:    171.8405452
RMM:   1    -0.106894155173E+03   -0.18962E-02   -0.11319E-01  1063   0.397E-01    0.574E-02
Total vdW correction in eV:    171.8404965
RMM:   2    -0.106892476815E+03    0.16784E-02   -0.27331E-03  1366   0.557E-02    0.286E-02
Total vdW correction in eV:    171.8404888
RMM:   3    -0.106892442975E+03    0.33840E-04   -0.15591E-04   885   0.175E-02    0.207E-02
Total vdW correction in eV:    171.8404685
RMM:   4    -0.106892445128E+03   -0.21530E-05   -0.42387E-05   673   0.143E-02
Total vdW correction in eV:    171.8405777
Total vdW correction in eV:    171.8404935
 130 F= -.10689245E+03 E0= -.10654837E+03  d E =-.188489E-03
quench:  g(F)=  0.000E+00 g(S)=  0.000E+00 dE (1.order)= 0.000E+00
 bond charge predicted
       N       E                     dE             d eps       ncg     rms          rms(c)
Total vdW correction in eV:    171.8403663
RMM:   1    -0.106894611614E+03   -0.21686E-02   -0.13589E-01  1063   0.436E-01    0.636E-02
Total vdW correction in eV:    171.8403088
RMM:   2    -0.106892571523E+03    0.20401E-02   -0.32416E-03  1393   0.592E-02    0.305E-02
Total vdW correction in eV:    171.8403221
RMM:   3    -0.106892530334E+03    0.41189E-04   -0.16096E-04   856   0.137E-02    0.217E-02
Total vdW correction in eV:    171.8402822
RMM:   4    -0.106892537343E+03   -0.70089E-05   -0.52221E-05   774   0.149E-02
Total vdW correction in eV:    171.8405113
Total vdW correction in eV:    171.8403113
 131 F= -.10689254E+03 E0= -.10654853E+03  d E =-.922150E-04
quench:  g(F)=  0.000E+00 g(S)=  0.000E+00 dE (1.order)= 0.000E+00
 bond charge predicted
       N       E                     dE             d eps       ncg     rms          rms(c)
Total vdW correction in eV:    171.8407236
RMM:   1    -0.106894190320E+03   -0.16600E-02   -0.11698E-01  1074   0.430E-01    0.520E-02
Total vdW correction in eV:    171.8406686
RMM:   2    -0.106892878694E+03    0.13116E-02   -0.25443E-03  1288   0.630E-02    0.269E-02
Total vdW correction in eV:    171.8407090
RMM:   3    -0.106892845509E+03    0.33185E-04   -0.15212E-04   880   0.174E-02    0.204E-02
Total vdW correction in eV:    171.8407617
RMM:   4    -0.106892845363E+03    0.14607E-06   -0.40930E-05   678   0.138E-02
Total vdW correction in eV:    171.8407038
Total vdW correction in eV:    171.8407884
 132 F= -.10689285E+03 E0= -.10654881E+03  d E =-.308020E-03
quench:  g(F)=  0.000E+00 g(S)=  0.000E+00 dE (1.order)= 0.000E+00
 bond charge predicted
       N       E                     dE             d eps       ncg     rms          rms(c)
Total vdW correction in eV:    171.8415689
RMM:   1    -0.106897861113E+03   -0.50156E-02   -0.42020E-01  1074   0.815E-01    0.957E-02
Total vdW correction in eV:    171.8414563
RMM:   2    -0.106893171632E+03    0.46895E-02   -0.89408E-03  1297   0.115E-01    0.483E-02
Total vdW correction in eV:    171.8415489
RMM:   3    -0.106893046334E+03    0.12530E-03   -0.47300E-04  1096   0.260E-02    0.333E-02
Total vdW correction in eV:    171.8416202
RMM:   4    -0.106893051643E+03   -0.53090E-05   -0.13366E-04  1064   0.223E-02    0.236E-02
Total vdW correction in eV:    171.8416811
RMM:   5    -0.106893047371E+03    0.42716E-05   -0.50918E-05   694   0.149E-02
Total vdW correction in eV:    171.8417306
Total vdW correction in eV:    171.8416896
 133 F= -.10689305E+03 E0= -.10654921E+03  d E =-.202008E-03
quench:  g(F)=  0.000E+00 g(S)=  0.000E+00 dE (1.order)= 0.000E+00
 bond charge predicted
       N       E                     dE             d eps       ncg     rms          rms(c)
Total vdW correction in eV:    171.8417024
RMM:   1    -0.106894926831E+03   -0.18752E-02   -0.12598E-01  1069   0.439E-01    0.622E-02
Total vdW correction in eV:    171.8415370
RMM:   2    -0.106893259449E+03    0.16674E-02   -0.29087E-03  1308   0.633E-02    0.278E-02
Total vdW correction in eV:    171.8415372
RMM:   3    -0.106893223767E+03    0.35682E-04   -0.16597E-04   954   0.189E-02    0.217E-02
Total vdW correction in eV:    171.8415441
RMM:   4    -0.106893221693E+03    0.20741E-05   -0.40837E-05   688   0.140E-02
Total vdW correction in eV:    171.8416708
Total vdW correction in eV:    171.8415969
 134 F= -.10689322E+03 E0= -.10654944E+03  d E =-.174322E-03
quench:  g(F)=  0.000E+00 g(S)=  0.000E+00 dE (1.order)= 0.000E+00
 bond charge predicted
       N       E                     dE             d eps       ncg     rms          rms(c)
Total vdW correction in eV:    171.8416043
RMM:   1    -0.106893844219E+03   -0.62045E-03   -0.42578E-02  1071   0.256E-01    0.394E-02
Total vdW correction in eV:    171.8414759
RMM:   2    -0.106893275759E+03    0.56846E-03   -0.99695E-04  1320   0.364E-02    0.173E-02
Total vdW correction in eV:    171.8415031
RMM:   3    -0.106893263003E+03    0.12756E-04   -0.56983E-05   695   0.990E-03    0.151E-02
Total vdW correction in eV:    171.8414928
RMM:   4    -0.106893261588E+03    0.14150E-05   -0.17553E-05   619   0.988E-03
Total vdW correction in eV:    171.8415922
Total vdW correction in eV:    171.8415218
 135 F= -.10689326E+03 E0= -.10654950E+03  d E =-.398944E-04
quench:  g(F)=  0.000E+00 g(S)=  0.000E+00 dE (1.order)= 0.000E+00
 bond charge predicted
       N       E                     dE             d eps       ncg     rms          rms(c)
Total vdW correction in eV:    171.8400910
RMM:   1    -0.106894139013E+03   -0.87601E-03   -0.12507E-01  1067   0.454E-01    0.502E-02
Total vdW correction in eV:    171.8400810
RMM:   2    -0.106893498052E+03    0.64096E-03   -0.22386E-03  1223   0.653E-02    0.307E-02
Total vdW correction in eV:    171.8400040
RMM:   3    -0.106893468907E+03    0.29145E-04   -0.13123E-04   833   0.157E-02    0.222E-02
Total vdW correction in eV:    171.8399181
RMM:   4    -0.106893468324E+03    0.58245E-06   -0.49563E-05   752   0.148E-02
Total vdW correction in eV:    171.8396924
Total vdW correction in eV:    171.8397902
 136 F= -.10689347E+03 E0= -.10654965E+03  d E =-.206737E-03
quench:  g(F)=  0.000E+00 g(S)=  0.000E+00 dE (1.order)= 0.000E+00
 bond charge predicted
       N       E                     dE             d eps       ncg     rms          rms(c)
Total vdW correction in eV:    171.8400507
RMM:   1    -0.106893501651E+03   -0.32744E-04   -0.43518E-03  1069   0.842E-02    0.102E-02
Total vdW correction in eV:    171.8400915
RMM:   2    -0.106893481938E+03    0.19713E-04   -0.10121E-04   875   0.185E-02    0.928E-03
Total vdW correction in eV:    171.8400903
RMM:   3    -0.106893479265E+03    0.26731E-05   -0.94973E-06   572   0.725E-03
Total vdW correction in eV:    171.8401065
Total vdW correction in eV:    171.8400999
 137 F= -.10689348E+03 E0= -.10654971E+03  d E =-.109406E-04
quench:  g(F)=  0.000E+00 g(S)=  0.000E+00 dE (1.order)= 0.000E+00
 bond charge predicted
       N       E                     dE             d eps       ncg     rms          rms(c)
Total vdW correction in eV:    171.8393889
RMM:   1    -0.106893757831E+03   -0.27589E-03   -0.10071E-01  1060   0.467E-01    0.422E-02
Total vdW correction in eV:    171.8394431
RMM:   2    -0.106893524566E+03    0.23327E-03   -0.12761E-03  1115   0.654E-02    0.240E-02
Total vdW correction in eV:    171.8394780
RMM:   3    -0.106893511183E+03    0.13382E-04   -0.10149E-04   969   0.180E-02    0.192E-02
Total vdW correction in eV:    171.8394563
RMM:   4    -0.106893506619E+03    0.45645E-05   -0.26499E-05   657   0.118E-02
Total vdW correction in eV:    171.8392647
Total vdW correction in eV:    171.8393642
 138 F= -.10689351E+03 E0= -.10654986E+03  d E =-.273535E-04
quench:  g(F)=  0.000E+00 g(S)=  0.000E+00 dE (1.order)= 0.000E+00
 bond charge predicted
       N       E                     dE             d eps       ncg     rms          rms(c)
Total vdW correction in eV:    171.8396931
RMM:   1    -0.106893626793E+03   -0.11561E-03   -0.21529E-02  1060   0.216E-01    0.179E-02
Total vdW correction in eV:    171.8396927
RMM:   2    -0.106893580519E+03    0.46274E-04   -0.29409E-04  1099   0.320E-02    0.112E-02
Total vdW correction in eV:    171.8396970
RMM:   3    -0.106893575372E+03    0.51465E-05   -0.23133E-05   626   0.101E-02
Total vdW correction in eV:    171.8397031
Total vdW correction in eV:    171.8397001
 139 F= -.10689358E+03 E0= -.10654986E+03  d E =-.687534E-04
quench:  g(F)=  0.000E+00 g(S)=  0.000E+00 dE (1.order)= 0.000E+00
 bond charge predicted
       N       E                     dE             d eps       ncg     rms          rms(c)
Total vdW correction in eV:    171.8392112
RMM:   1    -0.106894270300E+03   -0.68978E-03   -0.11975E-01  1070   0.483E-01    0.413E-02
Total vdW correction in eV:    171.8390990
RMM:   2    -0.106893692392E+03    0.57791E-03   -0.15845E-03  1115   0.632E-02    0.232E-02
Total vdW correction in eV:    171.8391190
RMM:   3    -0.106893666425E+03    0.25966E-04   -0.80216E-05   846   0.159E-02    0.168E-02
Total vdW correction in eV:    171.8391128
RMM:   4    -0.106893663372E+03    0.30536E-05   -0.31565E-05   652   0.133E-02
Total vdW correction in eV:    171.8391550
Total vdW correction in eV:    171.8391185
 140 F= -.10689366E+03 E0= -.10655002E+03  d E =-.879997E-04
quench:  g(F)=  0.000E+00 g(S)=  0.000E+00 dE (1.order)= 0.000E+00
 bond charge predicted
       N       E                     dE             d eps       ncg     rms          rms(c)
Total vdW correction in eV:    171.8392232
RMM:   1    -0.106893697143E+03   -0.30717E-04   -0.55651E-03  1063   0.104E-01    0.992E-03
Total vdW correction in eV:    171.8392224
RMM:   2    -0.106893671621E+03    0.25522E-04   -0.98674E-05   863   0.180E-02    0.861E-03
Total vdW correction in eV:    171.8392459
RMM:   3    -0.106893668730E+03    0.28912E-05   -0.78766E-06   570   0.694E-03
Total vdW correction in eV:    171.8392445
Total vdW correction in eV:    171.8392541
 141 F= -.10689367E+03 E0= -.10654999E+03  d E =-.535780E-05
quench:  g(F)=  0.000E+00 g(S)=  0.000E+00 dE (1.order)= 0.000E+00
 bond charge predicted
       N       E                     dE             d eps       ncg     rms          rms(c)
Total vdW correction in eV:    171.8389328
RMM:   1    -0.106894531357E+03   -0.85974E-03   -0.12262E-01  1071   0.467E-01    0.564E-02
Total vdW correction in eV:    171.8386141
RMM:   2    -0.106893759627E+03    0.77173E-03   -0.20124E-03  1150   0.602E-02    0.259E-02
Total vdW correction in eV:    171.8386156
RMM:   3    -0.106893733901E+03    0.25726E-04   -0.11603E-04   895   0.170E-02    0.209E-02
Total vdW correction in eV:    171.8386273
RMM:   4    -0.106893730711E+03    0.31900E-05   -0.32881E-05   661   0.134E-02
Total vdW correction in eV:    171.8386977
Total vdW correction in eV:    171.8386581
 142 F= -.10689373E+03 E0= -.10655016E+03  d E =-.619817E-04
quench:  g(F)=  0.000E+00 g(S)=  0.000E+00 dE (1.order)= 0.000E+00
 bond charge predicted
       N       E                     dE             d eps       ncg     rms          rms(c)
Total vdW correction in eV:    171.8387634
RMM:   1    -0.106893839448E+03   -0.10555E-03   -0.13359E-02  1069   0.153E-01    0.159E-02
Total vdW correction in eV:    171.8387976
RMM:   2    -0.106893757346E+03    0.82102E-04   -0.23659E-04  1112   0.230E-02    0.105E-02
Total vdW correction in eV:    171.8388280
RMM:   3    -0.106893751755E+03    0.55907E-05   -0.17593E-05   592   0.896E-03
Total vdW correction in eV:    171.8387839
Total vdW correction in eV:    171.8388175
 143 F= -.10689375E+03 E0= -.10655011E+03  d E =-.210442E-04
quench:  g(F)=  0.000E+00 g(S)=  0.000E+00 dE (1.order)= 0.000E+00
 reached required accuracy - stopping structural energy minimisation
