<?xml version="1.0" encoding="ISO-8859-1"?>
<modeling>
 <generator>
  <i name="program" type="string">vasp </i>
  <i name="version" type="string">5.3.5  </i>
  <i name="subversion" type="string">31Mar14 (build Aug 14 2018 04:06:59) complex                          parallel </i>
  <i name="platform" type="string">LinuxEasyBuild </i>
  <i name="date" type="string">2021 09 02 </i>
  <i name="time" type="string">14:59:58 </i>
 </generator>
 <incar>
  <i type="string" name="SYSTEM"> Cu78_Adsorbate_Calc_see_submitSL</i>
  <i type="string" name="PREC">medium</i>
  <i type="int" name="IALGO">    48</i>
  <i type="int" name="NSIM">     4</i>
  <i type="int" name="IBRION">     3</i>
  <i name="EDIFF">      0.00001000</i>
  <i name="EDIFFG">     -0.03000000</i>
  <i type="int" name="NSW">  2000</i>
  <i type="int" name="ISIF">     0</i>
  <i type="int" name="ISYM">     0</i>
  <i name="ENCUT">    350.00000000</i>
  <i name="POTIM">      0.00000000</i>
  <i type="string" name="LREAL"> Auto</i>
  <i type="logical" name="LPLANE"> T  </i>
  <i type="int" name="ISMEAR">    -1</i>
  <i name="SIGMA">      0.10000000</i>
  <i type="logical" name="LWAVE"> F  </i>
  <i type="logical" name="LCHARG"> F  </i>
  <i type="string" name="GGA"> BF</i>
  <i type="logical" name="LUSE_VDW"> T  </i>
  <i name="Zab_VDW">     -1.88670000</i>
 </incar>
 <kpoints>
  <generation param="Monkhorst-Pack">
   <v type="int" name="divisions">       1        1        1 </v>
   <v name="usershift">      0.00000000       0.00000000       0.00000000 </v>
   <v name="genvec1">      1.00000000       0.00000000       0.00000000 </v>
   <v name="genvec2">      0.00000000       1.00000000       0.00000000 </v>
   <v name="genvec3">      0.00000000       0.00000000       1.00000000 </v>
   <v name="shift">      0.00000000       0.00000000       0.00000000 </v>
  </generation>
  <varray name="kpointlist" >
   <v>       0.00000000       0.00000000       0.00000000 </v>
  </varray>
  <varray name="weights" >
   <v>       1.00000000 </v>
  </varray>
 </kpoints>
 <parameters>
  <separator name="general" >
   <i type="string" name="SYSTEM">Cu78_Adsorbate_Calc_see_submitSL</i>
   <i type="logical" name="LCOMPAT"> F  </i>
  </separator>
  <separator name="electronic" >
   <i type="string" name="PREC">medium</i>
   <i name="ENMAX">    350.00000000</i>
   <i name="ENAUG">    644.87300000</i>
   <i name="EDIFF">      0.00001000</i>
   <i type="int" name="IALGO">    48</i>
   <i type="int" name="IWAVPR">    11</i>
   <i type="int" name="NBANDS">   528</i>
   <i name="NELECT">    875.00000000</i>
   <i type="int" name="TURBO">     0</i>
   <i type="int" name="IRESTART">     0</i>
   <i type="int" name="NREBOOT">     0</i>
   <i type="int" name="NMIN">     0</i>
   <i name="EREF">      0.00000000</i>
   <separator name="electronic smearing" >
    <i type="int" name="ISMEAR">    -1</i>
    <i name="SIGMA">      0.10000000</i>
    <i name="KSPACING">      0.50000000</i>
    <i type="logical" name="KGAMMA"> T  </i>
   </separator>
   <separator name="electronic projectors" >
    <i type="logical" name="LREAL"> T  </i>
    <v name="ROPT">     -0.00200000     -0.00200000     -0.00200000     -0.00200000     -0.00200000</v>
    <i type="int" name="LMAXPAW">  -100</i>
    <i type="int" name="LMAXMIX">     2</i>
    <i type="logical" name="NLSPLINE"> F  </i>
   </separator>
   <separator name="electronic startup" >
    <i type="int" name="ISTART">     0</i>
    <i type="int" name="ICHARG">     2</i>
    <i type="int" name="INIWAV">     1</i>
   </separator>
   <separator name="electronic spin" >
    <i type="int" name="ISPIN">     1</i>
    <i type="logical" name="LNONCOLLINEAR"> F  </i>
    <v name="MAGMOM">      1.00000000      1.00000000      1.00000000      1.00000000      1.00000000      1.00000000      1.00000000      1.00000000      1.00000000      1.00000000      1.00000000      1.00000000      1.00000000      1.00000000      1.00000000      1.00000000      1.00000000      1.00000000      1.00000000      1.00000000
      1.00000000      1.00000000      1.00000000      1.00000000      1.00000000      1.00000000      1.00000000      1.00000000      1.00000000      1.00000000      1.00000000      1.00000000      1.00000000      1.00000000      1.00000000      1.00000000      1.00000000      1.00000000      1.00000000      1.00000000
      1.00000000      1.00000000      1.00000000      1.00000000      1.00000000      1.00000000      1.00000000      1.00000000      1.00000000      1.00000000      1.00000000      1.00000000      1.00000000      1.00000000      1.00000000      1.00000000      1.00000000      1.00000000      1.00000000      1.00000000
      1.00000000      1.00000000      1.00000000      1.00000000      1.00000000      1.00000000      1.00000000      1.00000000      1.00000000      1.00000000      1.00000000      1.00000000      1.00000000      1.00000000      1.00000000      1.00000000      1.00000000      1.00000000      1.00000000      1.00000000
      1.00000000      1.00000000</v>
    <i name="NUPDOWN">     -1.00000000</i>
    <i type="logical" name="LSORBIT"> F  </i>
    <v name="SAXIS">      0.00000000      0.00000000      1.00000000</v>
    <i type="logical" name="LSPIRAL"> F  </i>
    <v name="QSPIRAL">      0.00000000      0.00000000      0.00000000</v>
    <i type="logical" name="LZEROZ"> F  </i>
   </separator>
   <separator name="electronic exchange-correlation" >
    <i type="logical" name="LASPH"> F  </i>
    <i type="logical" name="LMETAGGA"> F  </i>
   </separator>
   <separator name="electronic convergence" >
    <i type="int" name="NELM">    60</i>
    <i type="int" name="NELMDL">   -12</i>
    <i type="int" name="NELMIN">     2</i>
    <i name="ENINI">    350.00000000</i>
    <separator name="electronic convergence detail" >
     <i type="logical" name="LDIAG"> T  </i>
     <i type="logical" name="LSUBROT"> F  </i>
     <i name="WEIMIN">      0.00100000</i>
     <i name="EBREAK">      0.00000000</i>
     <i name="DEPER">      0.30000000</i>
     <i type="int" name="NRMM">     4</i>
     <i name="TIME">      0.40000000</i>
    </separator>
   </separator>
   <separator name="electronic mixer" >
    <i name="AMIX">      0.40000000</i>
    <i name="BMIX">      1.00000000</i>
    <i name="AMIN">      0.10000000</i>
    <i name="AMIX_MAG">      1.60000000</i>
    <i name="BMIX_MAG">      1.00000000</i>
    <separator name="electronic mixer details" >
     <i type="int" name="IMIX">     4</i>
     <i type="int" name="MAXMIX">   -45</i>
     <i name="WC">    100.00000000</i>
     <i type="int" name="INIMIX">     1</i>
     <i type="int" name="MIXPRE">     1</i>
     <i type="int" name="MREMOVE">     5</i>
    </separator>
   </separator>
   <separator name="electronic dipolcorrection" >
    <i type="logical" name="LDIPOL"> F  </i>
    <i type="logical" name="LMONO"> F  </i>
    <i type="int" name="IDIPOL">     0</i>
    <i name="EPSILON">      1.00000000</i>
    <v name="DIPOL">   -100.00000000   -100.00000000   -100.00000000</v>
    <i name="EFIELD">      0.00000000</i>
   </separator>
  </separator>
  <separator name="grids" >
   <i type="int" name="NGX">    96</i>
   <i type="int" name="NGY">   108</i>
   <i type="int" name="NGZ">   108</i>
   <i type="int" name="NGXF">   180</i>
   <i type="int" name="NGYF">   192</i>
   <i type="int" name="NGZF">   196</i>
   <i type="logical" name="ADDGRID"> F  </i>
  </separator>
  <separator name="ionic" >
   <i type="int" name="NSW">  2000</i>
   <i type="int" name="IBRION">     3</i>
   <i type="int" name="ISIF">     0</i>
   <i name="PSTRESS">      0.00000000</i>
   <i name="EDIFFG">     -0.03000000</i>
   <i type="int" name="NFREE">     0</i>
   <i name="POTIM">      0.00000000</i>
   <i name="SMASS">     -3.00000000</i>
   <i name="SCALEE">      1.00000000</i>
  </separator>
  <separator name="ionic md" >
   <i name="TEBEG">      0.00010000</i>
   <i name="TEEND">      0.00010000</i>
   <i type="int" name="NBLOCK">     1</i>
   <i type="int" name="KBLOCK">  2000</i>
   <i type="int" name="NPACO">   256</i>
   <i name="APACO">     16.00000000</i>
  </separator>
  <separator name="symmetry" >
   <i type="int" name="ISYM">     0</i>
   <i name="SYMPREC">      0.00001000</i>
  </separator>
  <separator name="dos" >
   <i type="logical" name="LORBIT"> F  </i>
   <v name="RWIGS">     -1.00000000     -1.00000000     -1.00000000     -1.00000000     -1.00000000</v>
   <i type="int" name="NEDOS">   301</i>
   <i name="EMIN">     10.00000000</i>
   <i name="EMAX">    -10.00000000</i>
   <i name="EFERMI">      0.00000000</i>
  </separator>
  <separator name="writing" >
   <i type="int" name="NWRITE">     2</i>
   <i type="logical" name="LWAVE"> F  </i>
   <i type="logical" name="LCHARG"> F  </i>
   <i type="logical" name="LPARD"> F  </i>
   <i type="logical" name="LVTOT"> F  </i>
   <i type="logical" name="LVHAR"> F  </i>
   <i type="logical" name="LELF"> F  </i>
   <i type="logical" name="LOPTICS"> F  </i>
   <v name="STM">      0.00000000      0.00000000      0.00000000      0.00000000      0.00000000      0.00000000      0.00000000</v>
  </separator>
  <separator name="performance" >
   <i type="int" name="NPAR">    12</i>
   <i type="int" name="NSIM">     4</i>
   <i type="int" name="NBLK">    -1</i>
   <i type="logical" name="LPLANE"> T  </i>
   <i type="logical" name="LSCALAPACK"> T  </i>
   <i type="logical" name="LSCAAWARE"> F  </i>
   <i type="logical" name="LSCALU"> F  </i>
   <i type="logical" name="LASYNC"> F  </i>
   <i type="logical" name="LORBITALREAL"> F  </i>
  </separator>
  <separator name="miscellaneous" >
   <i type="int" name="IDIOT">     3</i>
   <i type="logical" name="LMUSIC"> F  </i>
   <v name="POMASS">     63.54600000     16.00000000     12.01100000     16.00000000      1.00000000</v>
   <v name="DARWINR">      0.00000000      0.00000000      0.00000000      0.00000000      0.00000000</v>
   <v name="DARWINV">      1.00000000      1.00000000      1.00000000      1.00000000      1.00000000</v>
   <i type="logical" name="LCORR"> T  </i>
  </separator>
  <i type="logical" name="GGA_COMPAT"> T  </i>
  <i type="logical" name="LBERRY"> F  </i>
  <i type="int" name="ICORELEVEL">     0</i>
  <i type="logical" name="LDAU"> F  </i>
  <i type="int" name="I_CONSTRAINED_M">     0</i>
  <separator name="electronic exchange-correlation" >
   <i type="string" name="GGA">BF</i>
   <i type="int" name="VOSKOWN">     0</i>
   <i type="logical" name="LHFCALC"> F  </i>
   <i type="string" name="PRECFOCK"></i>
   <i type="logical" name="LSYMGRAD"> F  </i>
   <i type="logical" name="LHFONE"> F  </i>
   <i type="logical" name="LRHFCALC"> F  </i>
   <i type="logical" name="LTHOMAS"> F  </i>
   <i type="logical" name="LMODELHF"> F  </i>
   <i name="ENCUT4O">     -1.00000000</i>
   <i type="int" name="EXXOEP">     0</i>
   <i type="int" name="FOURORBIT">     0</i>
   <i name="AEXX">      0.00000000</i>
   <i name="HFALPHA">      0.00000000</i>
   <i name="MCALPHA">      0.00000000</i>
   <i name="ALDAX">      1.00000000</i>
   <i name="AGGAX">      1.00000000</i>
   <i name="ALDAC">      1.00000000</i>
   <i name="AGGAC">      1.00000000</i>
   <i type="int" name="NKREDX">     1</i>
   <i type="int" name="NKREDY">     1</i>
   <i type="int" name="NKREDZ">     1</i>
   <i type="logical" name="SHIFTRED"> F  </i>
   <i type="logical" name="ODDONLY"> F  </i>
   <i type="logical" name="EVENONLY"> F  </i>
   <i type="int" name="LMAXFOCK">     0</i>
   <i type="int" name="NMAXFOCKAE">     0</i>
   <i type="logical" name="LFOCKAEDFT"> F  </i>
   <i name="HFSCREEN">      0.00000000</i>
   <i name="HFSCREENC">      0.00000000</i>
   <i type="int" name="NBANDSGWLOW">     0</i>
  </separator>
  <separator name="vdW DFT" >
   <i type="logical" name="LUSE_VDW"> T  </i>
   <i name="Zab_VDW">     -1.88670000</i>
   <i name="PARAM1">      0.12340000</i>
   <i name="PARAM2">      1.00000000</i>
   <i name="PARAM3">      0.00000000</i>
  </separator>
  <separator name="model GW" >
   <i type="int" name="MODEL_GW">     0</i>
   <i name="MODEL_EPS0">     80.21652465</i>
   <i name="MODEL_ALPHA">      1.00000000</i>
  </separator>
  <separator name="linear response parameters" >
   <i type="logical" name="LEPSILON"> F  </i>
   <i type="logical" name="LRPA"> F  </i>
   <i type="logical" name="LNABLA"> F  </i>
   <i type="logical" name="LVEL"> F  </i>
   <i type="int" name="KINTER">     0</i>
   <i name="CSHIFT">      0.10000000</i>
   <i name="OMEGAMAX">     -1.00000000</i>
   <i name="DEG_THRESHOLD">      0.00200000</i>
  </separator>
  <separator name="orbital magnetization" >
   <i type="logical" name="NUCIND"> F  </i>
   <v name="MAGPOS">      0.00000000      0.00000000      0.00000000</v>
   <i type="logical" name="LNICSALL"> T  </i>
   <i type="logical" name="ORBITALMAG"> F  </i>
   <i type="logical" name="LMAGBLOCH"> F  </i>
   <i type="logical" name="LCHIMAG"> F  </i>
   <i type="logical" name="LGAUGE"> T  </i>
   <i type="int" name="MAGATOM">     0</i>
   <v name="MAGDIPOL">      0.00000000      0.00000000      0.00000000</v>
   <v name="AVECCONST">      0.00000000      0.00000000      0.00000000</v>
  </separator>
  <separator name="response functions" >
   <i type="logical" name="LADDER"> F  </i>
   <i type="logical" name="LFXC"> F  </i>
   <i type="logical" name="LHARTREE"> T  </i>
   <i type="int" name="IBSE">     0</i>
   <i type="logical" name="LTCTE"> F  </i>
   <i type="logical" name="LTETE"> F  </i>
   <i type="logical" name="LTRIPLET"> F  </i>
   <i type="logical" name="LFXCEPS"> F  </i>
   <i type="logical" name="LFXHEG"> F  </i>
   <i type="logical" name="L2ORDER"> F  </i>
   <i type="logical" name="LUSEW"> F  </i>
   <i name="ENCUTGW">     -2.00000000</i>
   <i name="ENCUTGWSOFT">     -2.00000000</i>
   <i name="ENCUTLF">     -1.00000000</i>
   <i type="int" name="LMAXMP2">    -1</i>
   <i name="SCISSOR">      0.00000000</i>
   <i type="int" name="NOMEGA">     0</i>
   <i type="int" name="NOMEGAR">     0</i>
   <i type="int" name="NBANDSGW">    -1</i>
   <i type="int" name="NBANDSO">    -1</i>
   <i type="int" name="NBANDSV">    -1</i>
   <i type="int" name="NELM">     1</i>
   <i type="int" name="DIM">     3</i>
   <i type="int" name="ANTIRES">     0</i>
   <i name="OMEGAMAX">    -30.00000000</i>
   <i name="OMEGAMIN">    -30.00000000</i>
   <i name="OMEGATL">   -200.00000000</i>
   <i type="int" name="OMEGAGRID">     0</i>
   <i name="CSHIFT">     -0.10000000</i>
   <i type="logical" name="SELFENERGY"> F  </i>
   <i type="logical" name="LSPECTRAL"> F  </i>
   <i type="logical" name="ODDONLYGW"> F  </i>
   <i type="logical" name="EVENONLYGW"> F  </i>
   <i type="int" name="NKREDLFX">     1</i>
   <i type="int" name="NKREDLFY">     1</i>
   <i type="int" name="NKREDLFZ">     1</i>
   <i type="int" name="MAXMEM">  1800</i>
   <i type="int" name="TELESCOPE">     0</i>
   <i type="int" name="TAUPAR">     1</i>
  </separator>
  <separator name="External order field" >
   <i name="OFIELD_KAPPA">      0.00000000</i>
   <v name="OFIELD_K">      0.00000000      0.00000000      0.00000000</v>
   <i name="OFIELD_Q6_NEAR">      0.00000000</i>
   <i name="OFIELD_Q6_FAR">      0.00000000</i>
   <i name="OFIELD_A">      0.00000000</i>
  </separator>
 </parameters>
 <atominfo>
  <atoms>      82 </atoms>
  <types>       5 </types>
  <array name="atoms" >
   <dimension dim="1">ion</dimension>
   <field type="string">element</field>
   <field type="int">atomtype</field>
   <set>
    <rc><c>Cu</c><c>   1</c></rc>
    <rc><c>Cu</c><c>   1</c></rc>
    <rc><c>Cu</c><c>   1</c></rc>
    <rc><c>Cu</c><c>   1</c></rc>
    <rc><c>Cu</c><c>   1</c></rc>
    <rc><c>Cu</c><c>   1</c></rc>
    <rc><c>Cu</c><c>   1</c></rc>
    <rc><c>Cu</c><c>   1</c></rc>
    <rc><c>Cu</c><c>   1</c></rc>
    <rc><c>Cu</c><c>   1</c></rc>
    <rc><c>Cu</c><c>   1</c></rc>
    <rc><c>Cu</c><c>   1</c></rc>
    <rc><c>Cu</c><c>   1</c></rc>
    <rc><c>Cu</c><c>   1</c></rc>
    <rc><c>Cu</c><c>   1</c></rc>
    <rc><c>Cu</c><c>   1</c></rc>
    <rc><c>Cu</c><c>   1</c></rc>
    <rc><c>Cu</c><c>   1</c></rc>
    <rc><c>Cu</c><c>   1</c></rc>
    <rc><c>Cu</c><c>   1</c></rc>
    <rc><c>Cu</c><c>   1</c></rc>
    <rc><c>Cu</c><c>   1</c></rc>
    <rc><c>Cu</c><c>   1</c></rc>
    <rc><c>Cu</c><c>   1</c></rc>
    <rc><c>Cu</c><c>   1</c></rc>
    <rc><c>Cu</c><c>   1</c></rc>
    <rc><c>Cu</c><c>   1</c></rc>
    <rc><c>Cu</c><c>   1</c></rc>
    <rc><c>Cu</c><c>   1</c></rc>
    <rc><c>Cu</c><c>   1</c></rc>
    <rc><c>Cu</c><c>   1</c></rc>
    <rc><c>Cu</c><c>   1</c></rc>
    <rc><c>Cu</c><c>   1</c></rc>
    <rc><c>Cu</c><c>   1</c></rc>
    <rc><c>Cu</c><c>   1</c></rc>
    <rc><c>Cu</c><c>   1</c></rc>
    <rc><c>Cu</c><c>   1</c></rc>
    <rc><c>Cu</c><c>   1</c></rc>
    <rc><c>Cu</c><c>   1</c></rc>
    <rc><c>Cu</c><c>   1</c></rc>
    <rc><c>Cu</c><c>   1</c></rc>
    <rc><c>Cu</c><c>   1</c></rc>
    <rc><c>Cu</c><c>   1</c></rc>
    <rc><c>Cu</c><c>   1</c></rc>
    <rc><c>Cu</c><c>   1</c></rc>
    <rc><c>Cu</c><c>   1</c></rc>
    <rc><c>Cu</c><c>   1</c></rc>
    <rc><c>Cu</c><c>   1</c></rc>
    <rc><c>Cu</c><c>   1</c></rc>
    <rc><c>Cu</c><c>   1</c></rc>
    <rc><c>Cu</c><c>   1</c></rc>
    <rc><c>Cu</c><c>   1</c></rc>
    <rc><c>Cu</c><c>   1</c></rc>
    <rc><c>Cu</c><c>   1</c></rc>
    <rc><c>Cu</c><c>   1</c></rc>
    <rc><c>Cu</c><c>   1</c></rc>
    <rc><c>Cu</c><c>   1</c></rc>
    <rc><c>Cu</c><c>   1</c></rc>
    <rc><c>Cu</c><c>   1</c></rc>
    <rc><c>Cu</c><c>   1</c></rc>
    <rc><c>Cu</c><c>   1</c></rc>
    <rc><c>Cu</c><c>   1</c></rc>
    <rc><c>Cu</c><c>   1</c></rc>
    <rc><c>Cu</c><c>   1</c></rc>
    <rc><c>Cu</c><c>   1</c></rc>
    <rc><c>Cu</c><c>   1</c></rc>
    <rc><c>Cu</c><c>   1</c></rc>
    <rc><c>Cu</c><c>   1</c></rc>
    <rc><c>Cu</c><c>   1</c></rc>
    <rc><c>Cu</c><c>   1</c></rc>
    <rc><c>Cu</c><c>   1</c></rc>
    <rc><c>Cu</c><c>   1</c></rc>
    <rc><c>Cu</c><c>   1</c></rc>
    <rc><c>Cu</c><c>   1</c></rc>
    <rc><c>Cu</c><c>   1</c></rc>
    <rc><c>Cu</c><c>   1</c></rc>
    <rc><c>Cu</c><c>   1</c></rc>
    <rc><c>Cu</c><c>   1</c></rc>
    <rc><c>O </c><c>   2</c></rc>
    <rc><c>C </c><c>   3</c></rc>
    <rc><c>O </c><c>   4</c></rc>
    <rc><c>H </c><c>   5</c></rc>
   </set>
  </array>
  <array name="atomtypes" >
   <dimension dim="1">type</dimension>
   <field type="int">atomspertype</field>
   <field type="string">element</field>
   <field>mass</field>
   <field>valence</field>
   <field type="string">pseudopotential</field>
   <set>
    <rc><c>  78</c><c>Cu</c><c>     63.54600000</c><c>     11.00000000</c><c> PAW_PBE Cu 05Jan2001                   </c></rc>
    <rc><c>   1</c><c>O </c><c>     16.00000000</c><c>      6.00000000</c><c> PAW_PBE O 08Apr2002                    </c></rc>
    <rc><c>   1</c><c>C </c><c>     12.01100000</c><c>      4.00000000</c><c> PAW_PBE C 08Apr2002                    </c></rc>
    <rc><c>   1</c><c>O </c><c>     16.00000000</c><c>      6.00000000</c><c> PAW_PBE O 08Apr2002                    </c></rc>
    <rc><c>   1</c><c>H </c><c>      1.00000000</c><c>      1.00000000</c><c> PAW_PBE H 15Jun2001                    </c></rc>
   </set>
  </array>
 </atominfo>
 <structure name="initialpos" >
  <crystal>
   <varray name="basis" >
    <v>      20.54540472       0.00000000       0.00000000 </v>
    <v>       0.00000000      22.56932871       0.00000000 </v>
    <v>       0.00000000       0.00000000      23.64248389 </v>
   </varray>
   <i name="volume">  10962.92503504 </i>
   <varray name="rec_basis" >
    <v>       0.04867268       0.00000000       0.00000000 </v>
    <v>       0.00000000       0.04430792       0.00000000 </v>
    <v>       0.00000000       0.00000000       0.04229674 </v>
   </varray>
  </crystal>
  <varray name="positions" >
   <v>       0.46623418       0.54518015       0.74954984 </v>
   <v>       0.57881654       0.56517897       0.71376088 </v>
   <v>       0.52478110       0.45951522       0.70403685 </v>
   <v>       0.48878473       0.64319104       0.70157518 </v>
   <v>       0.37920499       0.58879111       0.68849534 </v>
   <v>       0.40104588       0.47587104       0.68740831 </v>
   <v>       0.68904995       0.58309311       0.67097815 </v>
   <v>       0.64053739       0.48012460       0.66475587 </v>
   <v>       0.60332810       0.66245524       0.65911983 </v>
   <v>       0.48419586       0.54558512       0.64730974 </v>
   <v>       0.58715076       0.37919692       0.65519469 </v>
   <v>       0.51292443       0.73579725       0.64542119 </v>
   <v>       0.46382245       0.37492520       0.60871142 </v>
   <v>       0.40344837       0.68769037       0.63511347 </v>
   <v>       0.31398505       0.52018871       0.62176039 </v>
   <v>       0.29738377       0.63098997       0.62152522 </v>
   <v>       0.33836131       0.41073840       0.62013535 </v>
   <v>       0.59717831       0.56520511       0.60801183 </v>
   <v>       0.54536526       0.45942350       0.59947931 </v>
   <v>       0.50743610       0.64185737       0.59424425 </v>
   <v>       0.39792256       0.58977962       0.58320818 </v>
   <v>       0.41821323       0.47616791       0.58255004 </v>
   <v>       0.70783030       0.52397527       0.58029393 </v>
   <v>       0.68157041       0.63774914       0.57790924 </v>
   <v>       0.65976554       0.42249772       0.57457626 </v>
   <v>       0.58716828       0.71653172       0.56239691 </v>
   <v>       0.57179161       0.34813796       0.55567046 </v>
   <v>       0.50270122       0.54457712       0.53950550 </v>
   <v>       0.46448878       0.73375997       0.54762943 </v>
   <v>       0.47277969       0.31071815       0.50672468 </v>
   <v>       0.34993275       0.68085676       0.53824294 </v>
   <v>       0.31078921       0.46732981       0.52522696 </v>
   <v>       0.37637516       0.37484677       0.52626492 </v>
   <v>       0.60982688       0.50714047       0.51826027 </v>
   <v>       0.59002196       0.62192457       0.51266948 </v>
   <v>       0.68456768       0.34550075       0.50374741 </v>
   <v>       0.48740096       0.42191064       0.51571358 </v>
   <v>       0.45172778       0.63726175       0.49753444 </v>
   <v>       0.40112765       0.53477576       0.49023572 </v>
   <v>       0.56393438       0.58217283       0.25198706 </v>
   <v>       0.48837977       0.49463412       0.25117581 </v>
   <v>       0.61277742       0.48133288       0.27207547 </v>
   <v>       0.41357326       0.40732625       0.25809640 </v>
   <v>       0.53384492       0.39184107       0.27332915 </v>
   <v>       0.65294893       0.37952790       0.29616727 </v>
   <v>       0.45148441       0.59355155       0.29499946 </v>
   <v>       0.37355604       0.50341107       0.29967917 </v>
   <v>       0.65191123       0.57195055       0.32700921 </v>
   <v>       0.55310568       0.64443476       0.34091511 </v>
   <v>       0.53936441       0.53302870       0.34117397 </v>
   <v>       0.69721430       0.46481888       0.35286479 </v>
   <v>       0.46259444       0.44511027       0.34515578 </v>
   <v>       0.44723870       0.33373700       0.33105066 </v>
   <v>       0.34098038       0.60070639       0.34178346 </v>
   <v>       0.57098948       0.31914729       0.35005755 </v>
   <v>       0.58404301       0.43069779       0.36508601 </v>
   <v>       0.34907173       0.40379845       0.34972679 </v>
   <v>       0.44204386       0.65527868       0.38326853 </v>
   <v>       0.42405005       0.54324079       0.38829634 </v>
   <v>       0.69906922       0.57598745       0.48812426 </v>
   <v>       0.67348296       0.36446011       0.40035176 </v>
   <v>       0.31013942       0.51663477       0.42319411 </v>
   <v>       0.63632283       0.63660555       0.41659075 </v>
   <v>       0.63007033       0.52332217       0.41766635 </v>
   <v>       0.52700787       0.59034853       0.43096783 </v>
   <v>       0.51360293       0.48458685       0.43704883 </v>
   <v>       0.53388922       0.69923790       0.44988928 </v>
   <v>       0.49902254       0.37179041       0.42076163 </v>
   <v>       0.48489237       0.26555287       0.40788481 </v>
   <v>       0.39970008       0.44024083       0.43908838 </v>
   <v>       0.70785512       0.45873185       0.47640637 </v>
   <v>       0.38643142       0.32918702       0.42641797 </v>
   <v>       0.34674226       0.62521620       0.44310150 </v>
   <v>       0.40661063       0.72669818       0.45560399 </v>
   <v>       0.29275208       0.39899104       0.44434502 </v>
   <v>       0.59954721       0.41149075       0.47095517 </v>
   <v>       0.58636421       0.30255220       0.45604261 </v>
   <v>       0.29526213       0.57702868       0.52646583 </v>
   <v>       0.58975089       0.66692936       0.18658547 </v>
   <v>       0.58072815       0.60840706       0.19555012 </v>
   <v>       0.58499508       0.57023636       0.15965718 </v>
   <v>       0.60003884       0.67111477       0.14629820 </v>
  </varray>
 </structure>
 <calculation>
  <scstep>
   <time name="diag">    4.94    4.96</time>
   <time name="diis">    6.83    6.83</time>
   <time name="orth">    1.39    1.39</time>
   <time name="total">   26.61   26.65</time>
   <energy>
    <i name="alphaZ">    728.59752647 </i>
    <i name="ewald"> 352567.44427117 </i>
    <i name="hartreedc">-450026.94567970 </i>
    <i name="XCdc">   3494.32349609 </i>
    <i name="pawpsdc">  84890.64001885 </i>
    <i name="pawaedc"> -96059.92489975 </i>
    <i name="eentropy">    -21.95505102 </i>
    <i name="bandstr">   2701.40543990 </i>
    <i name="atom"> 110335.80419746 </i>
    <i name="e_fr_energy">   8609.38931945 </i>
    <i name="e_wo_entrp">   8631.34437047 </i>
    <i name="e_0_energy">   8620.36684496 </i>
   </energy>
  </scstep>
  <scstep>
   <time name="diag">    4.94    4.94</time>
   <time name="diis">    6.85    6.85</time>
   <time name="orth">    1.41    1.41</time>
   <time name="total">   13.20   13.20</time>
   <energy>
    <i name="e_fr_energy">   3113.15620953 </i>
    <i name="e_wo_entrp">   3118.64420124 </i>
    <i name="e_0_energy">   3115.90020538 </i>
   </energy>
  </scstep>
  <scstep>
   <time name="diag">    4.99    4.99</time>
   <time name="diis">    6.82    6.82</time>
   <time name="orth">    1.40    1.40</time>
   <time name="total">   13.22   13.22</time>
   <energy>
    <i name="e_fr_energy">   1431.81817889 </i>
    <i name="e_wo_entrp">   1439.39906332 </i>
    <i name="e_0_energy">   1435.60862111 </i>
   </energy>
  </scstep>
  <scstep>
   <time name="diag">    4.96    4.96</time>
   <time name="diis">    6.77    6.77</time>
   <time name="orth">    1.39    1.39</time>
   <time name="total">   13.13   13.13</time>
   <energy>
    <i name="e_fr_energy">    406.06138041 </i>
    <i name="e_wo_entrp">    407.00143066 </i>
    <i name="e_0_energy">    406.53140554 </i>
   </energy>
  </scstep>
  <scstep>
   <time name="diag">    4.96    4.96</time>
   <time name="diis">    6.85    6.85</time>
   <time name="orth">    1.42    1.42</time>
   <time name="total">   13.23   13.23</time>
   <energy>
    <i name="e_fr_energy">     93.43188837 </i>
    <i name="e_wo_entrp">     94.87071859 </i>
    <i name="e_0_energy">     94.15130348 </i>
   </energy>
  </scstep>
  <scstep>
   <time name="diag">    4.99    4.99</time>
   <time name="diis">    6.83    6.83</time>
   <time name="orth">    1.45    1.45</time>
   <time name="total">   13.28   13.28</time>
   <energy>
    <i name="e_fr_energy">    -55.66742538 </i>
    <i name="e_wo_entrp">    -54.46200855 </i>
    <i name="e_0_energy">    -55.06471696 </i>
   </energy>
  </scstep>
  <scstep>
   <time name="diag">    4.95    4.95</time>
   <time name="diis">    6.85    6.85</time>
   <time name="orth">    1.41    1.41</time>
   <time name="total">   13.21   13.21</time>
   <energy>
    <i name="e_fr_energy">   -110.17578055 </i>
    <i name="e_wo_entrp">   -109.51384951 </i>
    <i name="e_0_energy">   -109.84481503 </i>
   </energy>
  </scstep>
  <scstep>
   <time name="diag">    4.99    4.99</time>
   <time name="diis">    6.82    6.82</time>
   <time name="orth">    1.41    1.41</time>
   <time name="total">   13.23   13.23</time>
   <energy>
    <i name="e_fr_energy">   -127.96380845 </i>
    <i name="e_wo_entrp">   -127.26745208 </i>
    <i name="e_0_energy">   -127.61563026 </i>
   </energy>
  </scstep>
  <scstep>
   <time name="diag">    5.00    5.00</time>
   <time name="diis">   14.24   14.24</time>
   <time name="orth">    1.44    1.44</time>
   <time name="total">   20.69   20.69</time>
   <energy>
    <i name="e_fr_energy">   -133.91703433 </i>
    <i name="e_wo_entrp">   -133.23274470 </i>
    <i name="e_0_energy">   -133.57488951 </i>
   </energy>
  </scstep>
  <scstep>
   <time name="diag">    4.99    4.99</time>
   <time name="diis">   19.10   19.10</time>
   <time name="orth">    1.47    1.47</time>
   <time name="total">   25.56   25.56</time>
   <energy>
    <i name="e_fr_energy">   -134.72826831 </i>
    <i name="e_wo_entrp">   -134.03414787 </i>
    <i name="e_0_energy">   -134.38120809 </i>
   </energy>
  </scstep>
  <scstep>
   <time name="diag">    4.99    4.99</time>
   <time name="diis">   22.98   22.98</time>
   <time name="orth">    1.42    1.42</time>
   <time name="total">   29.39   29.39</time>
   <energy>
    <i name="e_fr_energy">   -134.81421251 </i>
    <i name="e_wo_entrp">   -134.11520329 </i>
    <i name="e_0_energy">   -134.46470790 </i>
   </energy>
  </scstep>
  <scstep>
   <time name="diag">    4.96    4.96</time>
   <time name="diis">   24.10   24.10</time>
   <time name="orth">    1.42    1.42</time>
   <time name="total">   32.04   32.05</time>
   <energy>
    <i name="e_fr_energy">   -134.85449498 </i>
    <i name="e_wo_entrp">   -134.15095296 </i>
    <i name="e_0_energy">   -134.50272397 </i>
   </energy>
  </scstep>
  <scstep>
   <time name="diag">    4.74    4.74</time>
   <time name="diis">   12.93   12.93</time>
   <time name="orth">    1.41    1.41</time>
   <time name="total">   33.70   33.70</time>
   <energy>
    <i name="e_fr_energy">   -113.83373324 </i>
    <i name="e_wo_entrp">   -113.26479573 </i>
    <i name="e_0_energy">   -113.54926449 </i>
   </energy>
  </scstep>
  <scstep>
   <time name="diag">    4.96    4.96</time>
   <time name="diis">   13.21   13.21</time>
   <time name="orth">    1.46    1.46</time>
   <time name="total">   34.11   34.11</time>
   <energy>
    <i name="e_fr_energy">   -105.49127951 </i>
    <i name="e_wo_entrp">   -104.83162817 </i>
    <i name="e_0_energy">   -105.16145384 </i>
   </energy>
  </scstep>
  <scstep>
   <time name="diag">    4.95    4.95</time>
   <time name="diis">   13.19   13.19</time>
   <time name="orth">    1.46    1.46</time>
   <time name="total">   34.07   34.07</time>
   <energy>
    <i name="e_fr_energy">   -104.67685216 </i>
    <i name="e_wo_entrp">   -103.98385814 </i>
    <i name="e_0_energy">   -104.33035515 </i>
   </energy>
  </scstep>
  <scstep>
   <time name="diag">    4.98    4.98</time>
   <time name="diis">   13.27   13.27</time>
   <time name="orth">    1.49    1.49</time>
   <time name="total">   34.34   34.35</time>
   <energy>
    <i name="e_fr_energy">   -104.42513942 </i>
    <i name="e_wo_entrp">   -103.74127478 </i>
    <i name="e_0_energy">   -104.08320710 </i>
   </energy>
  </scstep>
  <scstep>
   <time name="diag">    5.06    5.06</time>
   <time name="diis">   13.20   13.20</time>
   <time name="orth">    1.43    1.43</time>
   <time name="total">   34.20   34.20</time>
   <energy>
    <i name="e_fr_energy">   -104.25230202 </i>
    <i name="e_wo_entrp">   -103.55123812 </i>
    <i name="e_0_energy">   -103.90177007 </i>
   </energy>
  </scstep>
  <scstep>
   <time name="diag">    5.02    5.02</time>
   <time name="diis">   13.22   13.22</time>
   <time name="orth">    1.40    1.40</time>
   <time name="total">   34.18   34.18</time>
   <energy>
    <i name="e_fr_energy">   -104.23852038 </i>
    <i name="e_wo_entrp">   -103.53391115 </i>
    <i name="e_0_energy">   -103.88621576 </i>
   </energy>
  </scstep>
  <scstep>
   <time name="diag">    4.95    4.95</time>
   <time name="diis">   13.10   13.10</time>
   <time name="orth">    1.36    1.36</time>
   <time name="total">   34.05   34.05</time>
   <energy>
    <i name="e_fr_energy">   -104.23248434 </i>
    <i name="e_wo_entrp">   -103.52755701 </i>
    <i name="e_0_energy">   -103.88002068 </i>
   </energy>
  </scstep>
  <scstep>
   <time name="diag">    4.95    4.95</time>
   <time name="diis">   13.19   13.19</time>
   <time name="orth">    1.37    1.37</time>
   <time name="total">   34.04   34.04</time>
   <energy>
    <i name="e_fr_energy">   -104.23527060 </i>
    <i name="e_wo_entrp">   -103.52875727 </i>
    <i name="e_0_energy">   -103.88201393 </i>
   </energy>
  </scstep>
  <scstep>
   <time name="diag">    4.95    4.95</time>
   <time name="diis">   13.19   13.19</time>
   <time name="orth">    1.38    1.38</time>
   <time name="total">   34.17   34.17</time>
   <energy>
    <i name="e_fr_energy">   -104.23845904 </i>
    <i name="e_wo_entrp">   -103.53209912 </i>
    <i name="e_0_energy">   -103.88527908 </i>
   </energy>
  </scstep>
  <scstep>
   <time name="diag">    4.93    4.93</time>
   <time name="diis">   13.10   13.10</time>
   <time name="orth">    1.37    1.37</time>
   <time name="total">   33.87   33.87</time>
   <energy>
    <i name="e_fr_energy">   -104.24815782 </i>
    <i name="e_wo_entrp">   -103.54101457 </i>
    <i name="e_0_energy">   -103.89458620 </i>
   </energy>
  </scstep>
  <scstep>
   <time name="diag">    4.89    4.89</time>
   <time name="diis">   13.04   13.04</time>
   <time name="orth">    1.43    1.43</time>
   <time name="total">   33.90   33.90</time>
   <energy>
    <i name="e_fr_energy">   -104.25298812 </i>
    <i name="e_wo_entrp">   -103.54563203 </i>
    <i name="e_0_energy">   -103.89931007 </i>
   </energy>
  </scstep>
  <scstep>
   <time name="diag">    4.92    4.92</time>
   <time name="diis">   12.99   12.99</time>
   <time name="orth">    1.38    1.38</time>
   <time name="total">   33.96   33.96</time>
   <energy>
    <i name="e_fr_energy">   -104.25865609 </i>
    <i name="e_wo_entrp">   -103.55109403 </i>
    <i name="e_0_energy">   -103.90487506 </i>
   </energy>
  </scstep>
  <scstep>
   <time name="diag">    4.95    4.95</time>
   <time name="diis">   13.07   13.07</time>
   <time name="orth">    1.41    1.41</time>
   <time name="total">   33.92   33.93</time>
   <energy>
    <i name="e_fr_energy">   -104.26471260 </i>
    <i name="e_wo_entrp">   -103.55706373 </i>
    <i name="e_0_energy">   -103.91088816 </i>
   </energy>
  </scstep>
  <scstep>
   <time name="diag">    4.92    4.92</time>
   <time name="diis">   13.05   13.05</time>
   <time name="orth">    1.38    1.38</time>
   <time name="total">   34.49   34.49</time>
   <energy>
    <i name="e_fr_energy">   -104.26657865 </i>
    <i name="e_wo_entrp">   -103.55887339 </i>
    <i name="e_0_energy">   -103.91272602 </i>
   </energy>
  </scstep>
  <scstep>
   <time name="diag">    4.91    4.91</time>
   <time name="diis">   12.08   12.08</time>
   <time name="orth">    1.37    1.37</time>
   <time name="total">   32.92   32.93</time>
   <energy>
    <i name="e_fr_energy">   -104.26907776 </i>
    <i name="e_wo_entrp">   -103.56133275 </i>
    <i name="e_0_energy">   -103.91520525 </i>
   </energy>
  </scstep>
  <scstep>
   <time name="diag">    4.97    4.97</time>
   <time name="diis">    9.01    9.01</time>
   <time name="orth">    1.40    1.40</time>
   <time name="total">   30.12   30.13</time>
   <energy>
    <i name="e_fr_energy">   -104.27054183 </i>
    <i name="e_wo_entrp">   -103.56280398 </i>
    <i name="e_0_energy">   -103.91667290 </i>
   </energy>
  </scstep>
  <scstep>
   <time name="diag">    4.92    4.92</time>
   <time name="diis">    8.82    8.82</time>
   <time name="orth">    1.35    1.35</time>
   <time name="total">   29.71   29.71</time>
   <energy>
    <i name="e_fr_energy">   -104.27164412 </i>
    <i name="e_wo_entrp">   -103.56385638 </i>
    <i name="e_0_energy">   -103.91775025 </i>
   </energy>
  </scstep>
  <scstep>
   <time name="diag">    4.92    4.92</time>
   <time name="diis">    8.28    8.28</time>
   <time name="orth">    1.39    1.39</time>
   <time name="total">   29.32   29.33</time>
   <energy>
    <i name="e_fr_energy">   -104.27224014 </i>
    <i name="e_wo_entrp">   -103.56441097 </i>
    <i name="e_0_energy">   -103.91832555 </i>
   </energy>
  </scstep>
  <scstep>
   <time name="diag">    4.99    4.99</time>
   <time name="diis">    8.30    8.30</time>
   <time name="orth">    1.38    1.38</time>
   <time name="total">   29.34   29.34</time>
   <energy>
    <i name="e_fr_energy">   -104.27267603 </i>
    <i name="e_wo_entrp">   -103.56479737 </i>
    <i name="e_0_energy">   -103.91873670 </i>
   </energy>
  </scstep>
  <scstep>
   <time name="diag">    4.92    4.92</time>
   <time name="diis">    8.01    8.01</time>
   <time name="orth">    1.35    1.35</time>
   <time name="total">   28.90   28.90</time>
   <energy>
    <i name="e_fr_energy">   -104.27277979 </i>
    <i name="e_wo_entrp">   -103.56489865 </i>
    <i name="e_0_energy">   -103.91883922 </i>
   </energy>
  </scstep>
  <scstep>
   <time name="diag">    4.96    4.96</time>
   <time name="diis">    7.94    7.94</time>
   <time name="orth">    1.36    1.36</time>
   <time name="total">   29.09   29.09</time>
   <energy>
    <i name="e_fr_energy">   -104.27285210 </i>
    <i name="e_wo_entrp">   -103.56496302 </i>
    <i name="e_0_energy">   -103.91890756 </i>
   </energy>
  </scstep>
  <scstep>
   <time name="diag">    4.97    4.97</time>
   <time name="diis">    7.43    7.43</time>
   <time name="orth">    1.39    1.39</time>
   <time name="total">   28.39   28.39</time>
   <energy>
    <i name="e_fr_energy">   -104.27289514 </i>
    <i name="e_wo_entrp">   -103.56499773 </i>
    <i name="e_0_energy">   -103.91894644 </i>
   </energy>
  </scstep>
  <scstep>
   <time name="diag">    4.94    4.94</time>
   <time name="diis">    5.79    5.79</time>
   <time name="orth">    1.37    1.37</time>
   <time name="total">   26.73   26.73</time>
   <energy>
    <i name="e_fr_energy">   -104.27291162 </i>
    <i name="e_wo_entrp">   -103.56501151 </i>
    <i name="e_0_energy">   -103.91896156 </i>
   </energy>
  </scstep>
  <scstep>
   <time name="diag">    4.89    4.89</time>
   <time name="diis">    6.25    6.25</time>
   <time name="orth">    1.39    1.39</time>
   <time name="total">   27.16   27.16</time>
   <energy>
    <i name="e_fr_energy">   -104.27292374 </i>
    <i name="e_wo_entrp">   -103.56502111 </i>
    <i name="e_0_energy">   -103.91897243 </i>
   </energy>
  </scstep>
  <scstep>
   <time name="diag">    4.93    4.93</time>
   <time name="diis">    4.92    4.92</time>
   <time name="orth">    1.33    1.33</time>
   <time name="total">   24.11   24.12</time>
   <energy>
    <i name="alphaZ">    728.59752647 </i>
    <i name="ewald"> 352567.44427117 </i>
    <i name="hartreedc">-450075.68315047 </i>
    <i name="XCdc">   3448.77533325 </i>
    <i name="pawpsdc">  86405.98037462 </i>
    <i name="pawaedc"> -97809.51650309 </i>
    <i name="eentropy">     -0.70790174 </i>
    <i name="bandstr">  -5704.96707425 </i>
    <i name="atom"> 110335.80419746 </i>
    <i name="e_fr_energy">   -104.27292660 </i>
    <i name="e_wo_entrp">   -103.56502486 </i>
    <i name="e_0_energy">   -103.91897573 </i>
   </energy>
  </scstep>
  <structure>
   <crystal>
    <varray name="basis" >
     <v>      20.54540472       0.00000000       0.00000000 </v>
     <v>       0.00000000      22.56932871       0.00000000 </v>
     <v>       0.00000000       0.00000000      23.64248389 </v>
    </varray>
    <i name="volume">  10962.92503504 </i>
    <varray name="rec_basis" >
     <v>       0.04867268       0.00000000       0.00000000 </v>
     <v>       0.00000000       0.04430792       0.00000000 </v>
     <v>       0.00000000       0.00000000       0.04229674 </v>
    </varray>
   </crystal>
   <varray name="positions" >
    <v>       0.46623418       0.54518015       0.74954984 </v>
    <v>       0.57881654       0.56517897       0.71376088 </v>
    <v>       0.52478110       0.45951522       0.70403685 </v>
    <v>       0.48878473       0.64319104       0.70157518 </v>
    <v>       0.37920499       0.58879111       0.68849534 </v>
    <v>       0.40104588       0.47587104       0.68740831 </v>
    <v>       0.68904995       0.58309311       0.67097815 </v>
    <v>       0.64053739       0.48012460       0.66475587 </v>
    <v>       0.60332810       0.66245524       0.65911983 </v>
    <v>       0.48419586       0.54558512       0.64730974 </v>
    <v>       0.58715076       0.37919692       0.65519469 </v>
    <v>       0.51292443       0.73579725       0.64542119 </v>
    <v>       0.46382245       0.37492520       0.60871142 </v>
    <v>       0.40344837       0.68769037       0.63511347 </v>
    <v>       0.31398505       0.52018871       0.62176039 </v>
    <v>       0.29738377       0.63098997       0.62152522 </v>
    <v>       0.33836131       0.41073840       0.62013535 </v>
    <v>       0.59717831       0.56520511       0.60801183 </v>
    <v>       0.54536526       0.45942350       0.59947931 </v>
    <v>       0.50743610       0.64185737       0.59424425 </v>
    <v>       0.39792256       0.58977962       0.58320818 </v>
    <v>       0.41821323       0.47616791       0.58255004 </v>
    <v>       0.70783030       0.52397527       0.58029393 </v>
    <v>       0.68157041       0.63774914       0.57790924 </v>
    <v>       0.65976554       0.42249772       0.57457626 </v>
    <v>       0.58716828       0.71653172       0.56239691 </v>
    <v>       0.57179161       0.34813796       0.55567046 </v>
    <v>       0.50270122       0.54457712       0.53950550 </v>
    <v>       0.46448878       0.73375997       0.54762943 </v>
    <v>       0.47277969       0.31071815       0.50672468 </v>
    <v>       0.34993275       0.68085676       0.53824294 </v>
    <v>       0.31078921       0.46732981       0.52522696 </v>
    <v>       0.37637516       0.37484677       0.52626492 </v>
    <v>       0.60982688       0.50714047       0.51826027 </v>
    <v>       0.59002196       0.62192457       0.51266948 </v>
    <v>       0.68456768       0.34550075       0.50374741 </v>
    <v>       0.48740096       0.42191064       0.51571358 </v>
    <v>       0.45172778       0.63726175       0.49753444 </v>
    <v>       0.40112765       0.53477576       0.49023572 </v>
    <v>       0.56393438       0.58217283       0.25198706 </v>
    <v>       0.48837977       0.49463412       0.25117581 </v>
    <v>       0.61277742       0.48133288       0.27207547 </v>
    <v>       0.41357326       0.40732625       0.25809640 </v>
    <v>       0.53384492       0.39184107       0.27332915 </v>
    <v>       0.65294893       0.37952790       0.29616727 </v>
    <v>       0.45148441       0.59355155       0.29499946 </v>
    <v>       0.37355604       0.50341107       0.29967917 </v>
    <v>       0.65191123       0.57195055       0.32700921 </v>
    <v>       0.55310568       0.64443476       0.34091511 </v>
    <v>       0.53936441       0.53302870       0.34117397 </v>
    <v>       0.69721430       0.46481888       0.35286479 </v>
    <v>       0.46259444       0.44511027       0.34515578 </v>
    <v>       0.44723870       0.33373700       0.33105066 </v>
    <v>       0.34098038       0.60070639       0.34178346 </v>
    <v>       0.57098948       0.31914729       0.35005755 </v>
    <v>       0.58404301       0.43069779       0.36508601 </v>
    <v>       0.34907173       0.40379845       0.34972679 </v>
    <v>       0.44204386       0.65527868       0.38326853 </v>
    <v>       0.42405005       0.54324079       0.38829634 </v>
    <v>       0.69906922       0.57598745       0.48812426 </v>
    <v>       0.67348296       0.36446011       0.40035176 </v>
    <v>       0.31013942       0.51663477       0.42319411 </v>
    <v>       0.63632283       0.63660555       0.41659075 </v>
    <v>       0.63007033       0.52332217       0.41766635 </v>
    <v>       0.52700787       0.59034853       0.43096783 </v>
    <v>       0.51360293       0.48458685       0.43704883 </v>
    <v>       0.53388922       0.69923790       0.44988928 </v>
    <v>       0.49902254       0.37179041       0.42076163 </v>
    <v>       0.48489237       0.26555287       0.40788481 </v>
    <v>       0.39970008       0.44024083       0.43908838 </v>
    <v>       0.70785512       0.45873185       0.47640637 </v>
    <v>       0.38643142       0.32918702       0.42641797 </v>
    <v>       0.34674226       0.62521620       0.44310150 </v>
    <v>       0.40661063       0.72669818       0.45560399 </v>
    <v>       0.29275208       0.39899104       0.44434502 </v>
    <v>       0.59954721       0.41149075       0.47095517 </v>
    <v>       0.58636421       0.30255220       0.45604261 </v>
    <v>       0.29526213       0.57702868       0.52646583 </v>
    <v>       0.58975089       0.66692936       0.18658547 </v>
    <v>       0.58072815       0.60840706       0.19555012 </v>
    <v>       0.58499508       0.57023636       0.15965718 </v>
    <v>       0.60003884       0.67111477       0.14629820 </v>
   </varray>
  </structure>
  <varray name="forces" >
   <v>      -0.00513082      -0.01787522       0.03355085 </v>
   <v>       0.01515916      -0.01697157       0.00741407 </v>
   <v>      -0.00307496       0.06669641       0.00862405 </v>
   <v>       0.00164856       0.00530143      -0.01479972 </v>
   <v>       0.00380626      -0.00942598       0.01108719 </v>
   <v>       0.00427555      -0.01434368       0.01531147 </v>
   <v>      -0.02981105      -0.00473642      -0.00912421 </v>
   <v>      -0.01145246       0.00300217       0.00533580 </v>
   <v>      -0.00333327       0.05473296       0.01213961 </v>
   <v>      -0.00162941      -0.01898463       0.01532777 </v>
   <v>      -0.02208481      -0.02579338      -0.02741190 </v>
   <v>       0.01378647       0.02339304       0.01363688 </v>
   <v>      -0.01685885      -0.02339765      -0.00807125 </v>
   <v>       0.00090992      -0.00112966      -0.00183051 </v>
   <v>      -0.00779820      -0.01095470       0.00556517 </v>
   <v>       0.00978049       0.02170774       0.00730762 </v>
   <v>      -0.01441533      -0.00859234      -0.02047656 </v>
   <v>       0.00148897      -0.01632642       0.00913367 </v>
   <v>       0.02610850       0.02842564      -0.01697554 </v>
   <v>       0.00598969      -0.00358106       0.00197707 </v>
   <v>       0.00012593       0.01998911       0.01225002 </v>
   <v>       0.01337257       0.02550161      -0.02761996 </v>
   <v>      -0.01505918      -0.01046268      -0.00392034 </v>
   <v>      -0.02272788       0.02117671       0.00605059 </v>
   <v>      -0.00738265      -0.00890657      -0.01247017 </v>
   <v>      -0.00395165       0.00112824       0.02160211 </v>
   <v>      -0.00540524      -0.01581351      -0.01277297 </v>
   <v>      -0.00606951       0.01329931       0.00243881 </v>
   <v>       0.00176235       0.00154396       0.00889078 </v>
   <v>       0.00588028      -0.01017526      -0.00587234 </v>
   <v>       0.00520130       0.02521128      -0.02015737 </v>
   <v>       0.03064309      -0.01235683      -0.00267230 </v>
   <v>       0.00610712      -0.01721197      -0.00587499 </v>
   <v>      -0.03252878       0.02960058      -0.00874758 </v>
   <v>       0.03154832       0.00892622       0.02648008 </v>
   <v>       0.02113424       0.00675422       0.01909859 </v>
   <v>       0.00338507      -0.05508898       0.01447983 </v>
   <v>       0.01616799       0.02873726       0.01626828 </v>
   <v>      -0.00129407      -0.02456309       0.00237036 </v>
   <v>      -3.34087994      -5.56758755      13.08031242 </v>
   <v>      -0.15327985      -0.17690504       0.17805326 </v>
   <v>       0.05258156      -0.22710812       0.18980867 </v>
   <v>      -0.05045168       0.00716100      -0.02907370 </v>
   <v>       0.01609772      -0.03778600      -0.00867548 </v>
   <v>       0.00415136      -0.05426350      -0.03138585 </v>
   <v>      -0.10946555      -0.05769312       0.07424424 </v>
   <v>       0.01442367      -0.02450442      -0.04045141 </v>
   <v>       0.08559612      -0.00912631       0.07817695 </v>
   <v>      -0.03368954       0.01950371       0.09998717 </v>
   <v>      -0.06504116      -0.16001961       0.19367719 </v>
   <v>       0.01592665       0.03480172       0.00878451 </v>
   <v>       0.01586441      -0.03991276       0.02025614 </v>
   <v>       0.00756975       0.01992711       0.00756266 </v>
   <v>      -0.00083224       0.01276911      -0.01113622 </v>
   <v>      -0.03107024      -0.00520595       0.01490019 </v>
   <v>       0.01943486      -0.00459987       0.01808275 </v>
   <v>      -0.01149087      -0.02449394       0.01421959 </v>
   <v>      -0.00677321       0.00046203      -0.01122188 </v>
   <v>       0.02430698       0.04579526      -0.02180919 </v>
   <v>      -0.00432371      -0.02340576      -0.00740984 </v>
   <v>       0.00575320       0.03373428       0.01342992 </v>
   <v>       0.01165179      -0.01703322       0.00945728 </v>
   <v>       0.01925505       0.00550148      -0.00858526 </v>
   <v>      -0.03136159       0.01483528      -0.02723816 </v>
   <v>      -0.01079777      -0.00953787      -0.05438645 </v>
   <v>       0.00541373      -0.00773709       0.03682891 </v>
   <v>      -0.00422726       0.02676604      -0.00775375 </v>
   <v>      -0.01572148       0.02982218      -0.03293802 </v>
   <v>      -0.01759867      -0.04197797       0.02519581 </v>
   <v>       0.00699632       0.00829828      -0.01875670 </v>
   <v>      -0.00461508       0.01634087      -0.00304081 </v>
   <v>      -0.00490531       0.04319573      -0.01125198 </v>
   <v>       0.00325776       0.02593204       0.00791479 </v>
   <v>       0.01993967      -0.01237011      -0.02000944 </v>
   <v>       0.00545984       0.00875910       0.00488302 </v>
   <v>      -0.01399397       0.02986783      -0.03748836 </v>
   <v>      -0.01848182      -0.01254308       0.02319529 </v>
   <v>       0.00094933      -0.02274219      -0.00201518 </v>
   <v>       0.30607493       0.73969516      -0.90859771 </v>
   <v>       2.78994199       5.99364934     -10.12661645 </v>
   <v>       0.42005706      -0.92544339      -2.54748120 </v>
   <v>       0.07002348       0.28674300      -0.20919067 </v>
  </varray>
  <energy>
   <i name="e_fr_energy">   -104.27292660 </i>
   <i name="e_wo_entrp">   -103.91897573 </i>
   <i name="e_0_energy">     -0.70790174 </i>
  </energy>
  <time name="totalsc"> 1054.39 1054.53</time>
 </calculation>
 <calculation>
  <scstep>
   <time name="diag">    4.97    4.97</time>
   <time name="diis">   12.66   12.66</time>
   <time name="orth">    1.37    1.37</time>
   <time name="total">   33.47   33.47</time>
   <energy>
    <i name="alphaZ">    728.59752647 </i>
    <i name="ewald"> 352572.43709792 </i>
    <i name="hartreedc">-450080.89699128 </i>
    <i name="XCdc">   3448.76360273 </i>
    <i name="pawpsdc">  86405.98422450 </i>
    <i name="pawaedc"> -97809.52112901 </i>
    <i name="eentropy">     -0.70792855 </i>
    <i name="bandstr">  -5704.82767690 </i>
    <i name="atom"> 110335.80419746 </i>
    <i name="e_fr_energy">   -104.36707667 </i>
    <i name="e_wo_entrp">   -103.65914812 </i>
    <i name="e_0_energy">   -104.01311240 </i>
   </energy>
  </scstep>
  <scstep>
   <time name="diag">    4.99    4.99</time>
   <time name="diis">   12.75   12.75</time>
   <time name="orth">    1.38    1.38</time>
   <time name="total">   33.69   33.70</time>
   <energy>
    <i name="e_fr_energy">   -104.36705765 </i>
    <i name="e_wo_entrp">   -103.65908061 </i>
    <i name="e_0_energy">   -104.01306913 </i>
   </energy>
  </scstep>
  <scstep>
   <time name="diag">    4.97    4.97</time>
   <time name="diis">   10.52   10.52</time>
   <time name="orth">    1.38    1.38</time>
   <time name="total">   31.31   31.32</time>
   <energy>
    <i name="e_fr_energy">   -104.36705173 </i>
    <i name="e_wo_entrp">   -103.65911489 </i>
    <i name="e_0_energy">   -104.01308331 </i>
   </energy>
  </scstep>
  <scstep>
   <time name="diag">    4.99    4.99</time>
   <time name="diis">    9.63    9.63</time>
   <time name="orth">    1.38    1.38</time>
   <time name="total">   30.57   30.57</time>
   <energy>
    <i name="e_fr_energy">   -104.36703696 </i>
    <i name="e_wo_entrp">   -103.65905323 </i>
    <i name="e_0_energy">   -104.01304509 </i>
   </energy>
  </scstep>
  <scstep>
   <time name="diag">    4.94    4.94</time>
   <time name="diis">    7.81    7.81</time>
   <time name="orth">    1.37    1.37</time>
   <time name="total">   27.20   27.20</time>
   <energy>
    <i name="alphaZ">    728.59752647 </i>
    <i name="ewald"> 352572.43709792 </i>
    <i name="hartreedc">-450081.38879439 </i>
    <i name="XCdc">   3448.76616489 </i>
    <i name="pawpsdc">  86404.54891850 </i>
    <i name="pawaedc"> -97808.03758529 </i>
    <i name="eentropy">     -0.70796044 </i>
    <i name="bandstr">  -5704.38659865 </i>
    <i name="atom"> 110335.80419746 </i>
    <i name="e_fr_energy">   -104.36703353 </i>
    <i name="e_wo_entrp">   -103.65907310 </i>
    <i name="e_0_energy">   -104.01305331 </i>
   </energy>
  </scstep>
  <structure>
   <crystal>
    <varray name="basis" >
     <v>      20.54540472       0.00000000       0.00000000 </v>
     <v>       0.00000000      22.56932871       0.00000000 </v>
     <v>       0.00000000       0.00000000      23.64248389 </v>
    </varray>
    <i name="volume">  10962.92503504 </i>
    <varray name="rec_basis" >
     <v>       0.04867268       0.00000000       0.00000000 </v>
     <v>       0.00000000       0.04430792       0.00000000 </v>
     <v>       0.00000000       0.00000000       0.04229674 </v>
    </varray>
   </crystal>
   <varray name="positions" >
    <v>       0.46623412       0.54517994       0.74955021 </v>
    <v>       0.57881673       0.56517878       0.71376096 </v>
    <v>       0.52478106       0.45951599       0.70403695 </v>
    <v>       0.48878475       0.64319110       0.70157502 </v>
    <v>       0.37920504       0.58879100       0.68849546 </v>
    <v>       0.40104594       0.47587088       0.68740848 </v>
    <v>       0.68904957       0.58309305       0.67097805 </v>
    <v>       0.64053725       0.48012464       0.66475593 </v>
    <v>       0.60332806       0.66245587       0.65911997 </v>
    <v>       0.48419584       0.54558490       0.64730990 </v>
    <v>       0.58715048       0.37919663       0.65519439 </v>
    <v>       0.51292460       0.73579752       0.64542134 </v>
    <v>       0.46382224       0.37492493       0.60871133 </v>
    <v>       0.40344838       0.68769036       0.63511345 </v>
    <v>       0.31398495       0.52018858       0.62176045 </v>
    <v>       0.29738390       0.63099022       0.62152530 </v>
    <v>       0.33836112       0.41073830       0.62013512 </v>
    <v>       0.59717833       0.56520493       0.60801193 </v>
    <v>       0.54536559       0.45942383       0.59947913 </v>
    <v>       0.50743617       0.64185733       0.59424427 </v>
    <v>       0.39792256       0.58977985       0.58320831 </v>
    <v>       0.41821340       0.47616820       0.58254974 </v>
    <v>       0.70783011       0.52397514       0.58029389 </v>
    <v>       0.68157013       0.63774939       0.57790931 </v>
    <v>       0.65976544       0.42249762       0.57457612 </v>
    <v>       0.58716823       0.71653174       0.56239715 </v>
    <v>       0.57179154       0.34813778       0.55567032 </v>
    <v>       0.50270114       0.54457727       0.53950552 </v>
    <v>       0.46448880       0.73375999       0.54762953 </v>
    <v>       0.47277976       0.31071803       0.50672461 </v>
    <v>       0.34993282       0.68085705       0.53824272 </v>
    <v>       0.31078959       0.46732966       0.52522693 </v>
    <v>       0.37637524       0.37484657       0.52626486 </v>
    <v>       0.60982647       0.50714081       0.51826017 </v>
    <v>       0.59002236       0.62192467       0.51266977 </v>
    <v>       0.68456795       0.34550083       0.50374762 </v>
    <v>       0.48740100       0.42191001       0.51571374 </v>
    <v>       0.45172798       0.63726209       0.49753462 </v>
    <v>       0.40112764       0.53477548       0.49023574 </v>
    <v>       0.56389205       0.58210862       0.25213107 </v>
    <v>       0.48837783       0.49463208       0.25117777 </v>
    <v>       0.61277808       0.48133026       0.27207756 </v>
    <v>       0.41357262       0.40732633       0.25809608 </v>
    <v>       0.53384513       0.39184064       0.27332905 </v>
    <v>       0.65294898       0.37952728       0.29616693 </v>
    <v>       0.45148303       0.59355088       0.29500028 </v>
    <v>       0.37355622       0.50341079       0.29967873 </v>
    <v>       0.65191231       0.57195045       0.32701007 </v>
    <v>       0.55310525       0.64443499       0.34091621 </v>
    <v>       0.53936358       0.53302686       0.34117610 </v>
    <v>       0.69721450       0.46481928       0.35286488 </v>
    <v>       0.46259464       0.44510981       0.34515600 </v>
    <v>       0.44723879       0.33373723       0.33105075 </v>
    <v>       0.34098037       0.60070654       0.34178334 </v>
    <v>       0.57098909       0.31914723       0.35005771 </v>
    <v>       0.58404326       0.43069774       0.36508620 </v>
    <v>       0.34907159       0.40379817       0.34972695 </v>
    <v>       0.44204377       0.65527869       0.38326840 </v>
    <v>       0.42405036       0.54324132       0.38829610 </v>
    <v>       0.69906916       0.57598718       0.48812418 </v>
    <v>       0.67348303       0.36446050       0.40035191 </v>
    <v>       0.31013957       0.51663458       0.42319422 </v>
    <v>       0.63632307       0.63660562       0.41659065 </v>
    <v>       0.63006994       0.52332234       0.41766605 </v>
    <v>       0.52700773       0.59034842       0.43096723 </v>
    <v>       0.51360300       0.48458676       0.43704924 </v>
    <v>       0.53388916       0.69923821       0.44988919 </v>
    <v>       0.49902234       0.37179076       0.42076126 </v>
    <v>       0.48489215       0.26555239       0.40788509 </v>
    <v>       0.39970017       0.44024093       0.43908818 </v>
    <v>       0.70785507       0.45873204       0.47640634 </v>
    <v>       0.38643136       0.32918752       0.42641785 </v>
    <v>       0.34674230       0.62521650       0.44310158 </v>
    <v>       0.40661088       0.72669803       0.45560377 </v>
    <v>       0.29275215       0.39899114       0.44434507 </v>
    <v>       0.59954703       0.41149109       0.47095476 </v>
    <v>       0.58636398       0.30255205       0.45604286 </v>
    <v>       0.29526214       0.57702842       0.52646581 </v>
    <v>       0.58975477       0.66693789       0.18657547 </v>
    <v>       0.58076349       0.60847618       0.19543863 </v>
    <v>       0.58500040       0.57022569       0.15962913 </v>
    <v>       0.60003973       0.67111807       0.14629590 </v>
   </varray>
  </structure>
  <varray name="forces" >
   <v>      -0.00510310      -0.01760288       0.03341858 </v>
   <v>       0.01505773      -0.01669607       0.00736332 </v>
   <v>      -0.00308120       0.06692617       0.00846825 </v>
   <v>       0.00162234       0.00540491      -0.01485063 </v>
   <v>       0.00382170      -0.00923475       0.01102811 </v>
   <v>       0.00431100      -0.01407164       0.01514625 </v>
   <v>      -0.02988548      -0.00451127      -0.00914935 </v>
   <v>      -0.01147896       0.00311114       0.00524557 </v>
   <v>      -0.00338525       0.05483239       0.01212410 </v>
   <v>      -0.00166072      -0.01881869       0.01525208 </v>
   <v>      -0.02216648      -0.02545554      -0.02752529 </v>
   <v>       0.01373132       0.02350387       0.01356027 </v>
   <v>      -0.01686870      -0.02314127      -0.00810131 </v>
   <v>       0.00093184      -0.00098169      -0.00183508 </v>
   <v>      -0.00777875      -0.01077641       0.00552889 </v>
   <v>       0.00982645       0.02190277       0.00729023 </v>
   <v>      -0.01434877      -0.00830541      -0.02058358 </v>
   <v>       0.00135439      -0.01608099       0.00911214 </v>
   <v>       0.02599082       0.02863966      -0.01694969 </v>
   <v>       0.00598276      -0.00344207       0.00196007 </v>
   <v>       0.00015903       0.02014580       0.01222254 </v>
   <v>       0.01340952       0.02569796      -0.02755498 </v>
   <v>      -0.01511304      -0.01026598      -0.00387784 </v>
   <v>      -0.02275199       0.02132623       0.00608298 </v>
   <v>      -0.00743890      -0.00868590      -0.01239145 </v>
   <v>      -0.00403487       0.00131315       0.02165460 </v>
   <v>      -0.00540815      -0.01560544      -0.01277503 </v>
   <v>      -0.00614999       0.01349467       0.00263749 </v>
   <v>       0.00175765       0.00171131       0.00893852 </v>
   <v>       0.00588434      -0.00990597      -0.00588988 </v>
   <v>       0.00518116       0.02537416      -0.02009551 </v>
   <v>       0.03061007      -0.01216945      -0.00258082 </v>
   <v>       0.00609936      -0.01698277      -0.00584287 </v>
   <v>      -0.03257494       0.02979202      -0.00870038 </v>
   <v>       0.03142956       0.00910922       0.02641798 </v>
   <v>       0.02103391       0.00702373       0.01907847 </v>
   <v>       0.00334310      -0.05485312       0.01450938 </v>
   <v>       0.01618163       0.02885604       0.01628327 </v>
   <v>      -0.00126075      -0.02429580       0.00245016 </v>
   <v>      -3.21420657      -5.36419139      12.59981547 </v>
   <v>      -0.15450629      -0.17845473       0.17724652 </v>
   <v>       0.05335105      -0.22834994       0.18947759 </v>
   <v>      -0.05047483       0.00725052      -0.02900569 </v>
   <v>       0.01602388      -0.03782316      -0.00871385 </v>
   <v>       0.00417469      -0.05414864      -0.03123254 </v>
   <v>      -0.11224922      -0.05698801       0.07529349 </v>
   <v>       0.01423396      -0.02434139      -0.04038515 </v>
   <v>       0.08767268      -0.00905583       0.08000440 </v>
   <v>      -0.03391853       0.02129496       0.10258112 </v>
   <v>      -0.06772390      -0.16430505       0.20022842 </v>
   <v>       0.01595505       0.03491571       0.00885534 </v>
   <v>       0.01573021      -0.03985723       0.02053839 </v>
   <v>       0.00748273       0.02002545       0.00751200 </v>
   <v>      -0.00087076       0.01294158      -0.01108448 </v>
   <v>      -0.03099177      -0.00507823       0.01487396 </v>
   <v>       0.01936941      -0.00461983       0.01835981 </v>
   <v>      -0.01160136      -0.02435501       0.01417500 </v>
   <v>      -0.00695916       0.00087252      -0.01114186 </v>
   <v>       0.02416340       0.04574628      -0.02144673 </v>
   <v>      -0.00435285      -0.02320622      -0.00738924 </v>
   <v>       0.00582966       0.03382995       0.01339316 </v>
   <v>       0.01157678      -0.01683835       0.00948958 </v>
   <v>       0.01927095       0.00586592      -0.00842846 </v>
   <v>      -0.03135577       0.01481297      -0.02692500 </v>
   <v>      -0.01093543      -0.00941747      -0.05366732 </v>
   <v>       0.00533458      -0.00761569       0.03687665 </v>
   <v>      -0.00419750       0.02689596      -0.00779919 </v>
   <v>      -0.01575046       0.02994214      -0.03275724 </v>
   <v>      -0.01763924      -0.04179432       0.02521496 </v>
   <v>       0.00700764       0.00848321      -0.01864809 </v>
   <v>      -0.00463244       0.01648909      -0.00299519 </v>
   <v>      -0.00491100       0.04336511      -0.01124559 </v>
   <v>       0.00325759       0.02611259       0.00795851 </v>
   <v>       0.01998177      -0.01222251      -0.01993073 </v>
   <v>       0.00541264       0.00898690       0.00493180 </v>
   <v>      -0.01398089       0.02997636      -0.03732148 </v>
   <v>      -0.01849491      -0.01230895       0.02323035 </v>
   <v>       0.00098825      -0.02254336      -0.00197565 </v>
   <v>       0.31176254       0.75746745      -0.92729685 </v>
   <v>       2.65546990       5.72914465      -9.62365423 </v>
   <v>       0.42351224      -0.90652278      -2.54974188 </v>
   <v>       0.07496166       0.30333666      -0.22433964 </v>
  </varray>
  <energy>
   <i name="e_fr_energy">   -104.36703353 </i>
   <i name="e_wo_entrp">   -104.01305331 </i>
   <i name="e_0_energy">     -0.70796044 </i>
  </energy>
  <time name="totalsc">  191.01  191.04</time>
 </calculation>
 <calculation>
  <scstep>
   <time name="diag">    4.94    4.94</time>
   <time name="diis">   12.78   12.78</time>
   <time name="orth">    1.38    1.38</time>
   <time name="total">   33.72   33.72</time>
   <energy>
    <i name="alphaZ">    728.59752647 </i>
    <i name="ewald"> 352699.72414810 </i>
    <i name="hartreedc">-450211.43293665 </i>
    <i name="XCdc">   3448.58762476 </i>
    <i name="pawpsdc">  86404.45441797 </i>
    <i name="pawaedc"> -97807.92606615 </i>
    <i name="eentropy">     -0.71328205 </i>
    <i name="bandstr">  -5704.52939691 </i>
    <i name="atom"> 110335.80419746 </i>
    <i name="e_fr_energy">   -107.43376702 </i>
    <i name="e_wo_entrp">   -106.72048496 </i>
    <i name="e_0_energy">   -107.07712599 </i>
   </energy>
  </scstep>
  <scstep>
   <time name="diag">    4.91    4.91</time>
   <time name="diis">   13.27   13.27</time>
   <time name="orth">    1.41    1.41</time>
   <time name="total">   34.15   34.15</time>
   <energy>
    <i name="e_fr_energy">   -105.73790765 </i>
    <i name="e_wo_entrp">   -105.03574986 </i>
    <i name="e_0_energy">   -105.38682875 </i>
   </energy>
  </scstep>
  <scstep>
   <time name="diag">    4.95    4.95</time>
   <time name="diis">   13.13   13.13</time>
   <time name="orth">    1.41    1.41</time>
   <time name="total">   34.09   34.09</time>
   <energy>
    <i name="e_fr_energy">   -105.69867802 </i>
    <i name="e_wo_entrp">   -104.98922571 </i>
    <i name="e_0_energy">   -105.34395186 </i>
   </energy>
  </scstep>
  <scstep>
   <time name="diag">    4.89    4.89</time>
   <time name="diis">   13.32   13.32</time>
   <time name="orth">    1.35    1.35</time>
   <time name="total">   34.11   34.11</time>
   <energy>
    <i name="e_fr_energy">   -105.69388980 </i>
    <i name="e_wo_entrp">   -104.98576391 </i>
    <i name="e_0_energy">   -105.33982685 </i>
   </energy>
  </scstep>
  <scstep>
   <time name="diag">    4.94    4.94</time>
   <time name="diis">   13.21   13.21</time>
   <time name="orth">    1.41    1.41</time>
   <time name="total">   34.07   34.07</time>
   <energy>
    <i name="e_fr_energy">   -105.69199071 </i>
    <i name="e_wo_entrp">   -104.98234923 </i>
    <i name="e_0_energy">   -105.33716997 </i>
   </energy>
  </scstep>
  <scstep>
   <time name="diag">    4.94    4.94</time>
   <time name="diis">   13.17   13.17</time>
   <time name="orth">    1.35    1.35</time>
   <time name="total">   34.01   34.01</time>
   <energy>
    <i name="e_fr_energy">   -105.69186165 </i>
    <i name="e_wo_entrp">   -104.98239589 </i>
    <i name="e_0_energy">   -105.33712877 </i>
   </energy>
  </scstep>
  <scstep>
   <time name="diag">    4.96    4.96</time>
   <time name="diis">   13.32   13.32</time>
   <time name="orth">    1.35    1.35</time>
   <time name="total">   34.24   34.24</time>
   <energy>
    <i name="e_fr_energy">   -105.69120936 </i>
    <i name="e_wo_entrp">   -104.98179309 </i>
    <i name="e_0_energy">   -105.33650122 </i>
   </energy>
  </scstep>
  <scstep>
   <time name="diag">    4.95    4.95</time>
   <time name="diis">   13.20   13.20</time>
   <time name="orth">    1.35    1.35</time>
   <time name="total">   34.01   34.01</time>
   <energy>
    <i name="e_fr_energy">   -105.69129173 </i>
    <i name="e_wo_entrp">   -104.98196117 </i>
    <i name="e_0_energy">   -105.33662645 </i>
   </energy>
  </scstep>
  <scstep>
   <time name="diag">    4.93    4.93</time>
   <time name="diis">   11.56   11.56</time>
   <time name="orth">    1.37    1.37</time>
   <time name="total">   32.51   32.51</time>
   <energy>
    <i name="e_fr_energy">   -105.69137295 </i>
    <i name="e_wo_entrp">   -104.98203112 </i>
    <i name="e_0_energy">   -105.33670204 </i>
   </energy>
  </scstep>
  <scstep>
   <time name="diag">    4.92    4.92</time>
   <time name="diis">    8.72    8.72</time>
   <time name="orth">    1.40    1.40</time>
   <time name="total">   29.68   29.68</time>
   <energy>
    <i name="e_fr_energy">   -105.69146309 </i>
    <i name="e_wo_entrp">   -104.98215172 </i>
    <i name="e_0_energy">   -105.33680741 </i>
   </energy>
  </scstep>
  <scstep>
   <time name="diag">    4.93    4.93</time>
   <time name="diis">    8.13    8.13</time>
   <time name="orth">    1.35    1.35</time>
   <time name="total">   29.03   29.03</time>
   <energy>
    <i name="e_fr_energy">   -105.69153441 </i>
    <i name="e_wo_entrp">   -104.98217301 </i>
    <i name="e_0_energy">   -105.33685371 </i>
   </energy>
  </scstep>
  <scstep>
   <time name="diag">    4.92    4.92</time>
   <time name="diis">    8.13    8.13</time>
   <time name="orth">    1.37    1.37</time>
   <time name="total">   28.96   28.97</time>
   <energy>
    <i name="e_fr_energy">   -105.69164577 </i>
    <i name="e_wo_entrp">   -104.98227055 </i>
    <i name="e_0_energy">   -105.33695816 </i>
   </energy>
  </scstep>
  <scstep>
   <time name="diag">    4.95    4.95</time>
   <time name="diis">    8.08    8.08</time>
   <time name="orth">    1.38    1.38</time>
   <time name="total">   28.96   28.96</time>
   <energy>
    <i name="e_fr_energy">   -105.69172321 </i>
    <i name="e_wo_entrp">   -104.98236000 </i>
    <i name="e_0_energy">   -105.33704161 </i>
   </energy>
  </scstep>
  <scstep>
   <time name="diag">    4.94    4.94</time>
   <time name="diis">    8.15    8.15</time>
   <time name="orth">    1.38    1.38</time>
   <time name="total">   29.16   29.16</time>
   <energy>
    <i name="e_fr_energy">   -105.69181401 </i>
    <i name="e_wo_entrp">   -104.98244012 </i>
    <i name="e_0_energy">   -105.33712706 </i>
   </energy>
  </scstep>
  <scstep>
   <time name="diag">    4.92    4.92</time>
   <time name="diis">    7.95    7.95</time>
   <time name="orth">    1.38    1.38</time>
   <time name="total">   28.86   28.87</time>
   <energy>
    <i name="e_fr_energy">   -105.69184319 </i>
    <i name="e_wo_entrp">   -104.98247297 </i>
    <i name="e_0_energy">   -105.33715808 </i>
   </energy>
  </scstep>
  <scstep>
   <time name="diag">    4.94    4.94</time>
   <time name="diis">    7.89    7.89</time>
   <time name="orth">    1.38    1.38</time>
   <time name="total">   28.83   28.83</time>
   <energy>
    <i name="e_fr_energy">   -105.69186414 </i>
    <i name="e_wo_entrp">   -104.98249220 </i>
    <i name="e_0_energy">   -105.33717817 </i>
   </energy>
  </scstep>
  <scstep>
   <time name="diag">    4.95    4.95</time>
   <time name="diis">    6.97    6.97</time>
   <time name="orth">    1.37    1.37</time>
   <time name="total">   27.85   27.85</time>
   <energy>
    <i name="e_fr_energy">   -105.69187451 </i>
    <i name="e_wo_entrp">   -104.98250054 </i>
    <i name="e_0_energy">   -105.33718752 </i>
   </energy>
  </scstep>
  <scstep>
   <time name="diag">    4.94    4.94</time>
   <time name="diis">    5.71    5.71</time>
   <time name="orth">    1.43    1.43</time>
   <time name="total">   26.80   26.80</time>
   <energy>
    <i name="e_fr_energy">   -105.69188864 </i>
    <i name="e_wo_entrp">   -104.98251302 </i>
    <i name="e_0_energy">   -105.33720083 </i>
   </energy>
  </scstep>
  <scstep>
   <time name="diag">    4.98    4.98</time>
   <time name="diis">    5.22    5.22</time>
   <time name="orth">    1.34    1.34</time>
   <time name="total">   24.62   24.62</time>
   <energy>
    <i name="alphaZ">    728.59752647 </i>
    <i name="ewald"> 352699.72414810 </i>
    <i name="hartreedc">-450224.42698298 </i>
    <i name="XCdc">   3448.61586871 </i>
    <i name="pawpsdc">  86377.21787713 </i>
    <i name="pawaedc"> -97779.76371974 </i>
    <i name="eentropy">     -0.70937435 </i>
    <i name="bandstr">  -5690.75143400 </i>
    <i name="atom"> 110335.80419746 </i>
    <i name="e_fr_energy">   -105.69189321 </i>
    <i name="e_wo_entrp">   -104.98251886 </i>
    <i name="e_0_energy">   -105.33720603 </i>
   </energy>
  </scstep>
  <structure>
   <crystal>
    <varray name="basis" >
     <v>      20.54540472       0.00000000       0.00000000 </v>
     <v>       0.00000000      22.56932871       0.00000000 </v>
     <v>       0.00000000       0.00000000      23.64248389 </v>
    </varray>
    <i name="volume">  10962.92503504 </i>
    <varray name="rec_basis" >
     <v>       0.04867268       0.00000000       0.00000000 </v>
     <v>       0.00000000       0.04430792       0.00000000 </v>
     <v>       0.00000000       0.00000000       0.04229674 </v>
    </varray>
   </crystal>
   <varray name="positions" >
    <v>       0.46623257       0.54517503       0.74955901 </v>
    <v>       0.57882131       0.56517411       0.71376290 </v>
    <v>       0.52478013       0.45953432       0.70403921 </v>
    <v>       0.48878524       0.64319256       0.70157114 </v>
    <v>       0.37920619       0.58878841       0.68849837 </v>
    <v>       0.40104723       0.47586694       0.68741250 </v>
    <v>       0.68904057       0.58309175       0.67097565 </v>
    <v>       0.64053379       0.48012546       0.66475733 </v>
    <v>       0.60332705       0.66247091       0.65912315 </v>
    <v>       0.48419535       0.54557969       0.64731393 </v>
    <v>       0.58714381       0.37918954       0.65518720 </v>
    <v>       0.51292877       0.73580395       0.64542491 </v>
    <v>       0.46381715       0.37491850       0.60870922 </v>
    <v>       0.40344865       0.68769005       0.63511297 </v>
    <v>       0.31398260       0.52018557       0.62176191 </v>
    <v>       0.29738685       0.63099618       0.62152722 </v>
    <v>       0.33835677       0.41073594       0.62012975 </v>
    <v>       0.59717878       0.56520044       0.60801433 </v>
    <v>       0.54537347       0.45943164       0.59947467 </v>
    <v>       0.50743798       0.64185635       0.59424479 </v>
    <v>       0.39792260       0.58978534       0.58321153 </v>
    <v>       0.41821743       0.47617521       0.58254249 </v>
    <v>       0.70782556       0.52397227       0.58029286 </v>
    <v>       0.68156326       0.63775521       0.57791090 </v>
    <v>       0.65976322       0.42249517       0.57457285 </v>
    <v>       0.58716704       0.71653205       0.56240282 </v>
    <v>       0.57178991       0.34813343       0.55566697 </v>
    <v>       0.50269931       0.54458093       0.53950616 </v>
    <v>       0.46448934       0.73376041       0.54763186 </v>
    <v>       0.47278154       0.31071523       0.50672307 </v>
    <v>       0.34993439       0.68086398       0.53823743 </v>
    <v>       0.31079884       0.46732627       0.52522623 </v>
    <v>       0.37637708       0.37484184       0.52626332 </v>
    <v>       0.60981664       0.50714895       0.51825788 </v>
    <v>       0.59003189       0.62192712       0.51267672 </v>
    <v>       0.68457433       0.34550268       0.50375263 </v>
    <v>       0.48740203       0.42189487       0.51571754 </v>
    <v>       0.45173286       0.63726998       0.49753889 </v>
    <v>       0.40112725       0.53476873       0.49023636 </v>
    <v>       0.56288343       0.58057848       0.25556275 </v>
    <v>       0.48833155       0.49458346       0.25122448 </v>
    <v>       0.61279396       0.48126785       0.27212736 </v>
    <v>       0.41355739       0.40732830       0.25808845 </v>
    <v>       0.53384999       0.39183025       0.27332678 </v>
    <v>       0.65295023       0.37951236       0.29615869 </v>
    <v>       0.45144998       0.59353503       0.29501976 </v>
    <v>       0.37356058       0.50340406       0.29966811 </v>
    <v>       0.65193815       0.57194794       0.32703058 </v>
    <v>       0.55309508       0.64444035       0.34094244 </v>
    <v>       0.53934395       0.53298288       0.34122691 </v>
    <v>       0.69721931       0.46482884       0.35286719 </v>
    <v>       0.46259943       0.44509884       0.34516132 </v>
    <v>       0.44724108       0.33374270       0.33105273 </v>
    <v>       0.34098012       0.60071005       0.34178042 </v>
    <v>       0.57097971       0.31914580       0.35006162 </v>
    <v>       0.58404912       0.43069647       0.36509095 </v>
    <v>       0.34906812       0.40379144       0.34973068 </v>
    <v>       0.44204173       0.65527882       0.38326546 </v>
    <v>       0.42405770       0.54325391       0.38829038 </v>
    <v>       0.69906786       0.57598074       0.48812224 </v>
    <v>       0.67348477       0.36446977       0.40035543 </v>
    <v>       0.31014309       0.51662989       0.42319670 </v>
    <v>       0.63632888       0.63660713       0.41658840 </v>
    <v>       0.63006047       0.52332641       0.41765891 </v>
    <v>       0.52700447       0.59034580       0.43095296 </v>
    <v>       0.51360463       0.48458464       0.43705890 </v>
    <v>       0.53388789       0.69924556       0.44988716 </v>
    <v>       0.49901759       0.37179895       0.42075262 </v>
    <v>       0.48488683       0.26554085       0.40789170 </v>
    <v>       0.39970229       0.44024321       0.43908325 </v>
    <v>       0.70785367       0.45873653       0.47640554 </v>
    <v>       0.38642988       0.32919939       0.42641489 </v>
    <v>       0.34674328       0.62522363       0.44310366 </v>
    <v>       0.40661690       0.72669463       0.45559852 </v>
    <v>       0.29275380       0.39899355       0.44434636 </v>
    <v>       0.59954280       0.41149930       0.47094492 </v>
    <v>       0.58635840       0.30254861       0.45604895 </v>
    <v>       0.29526243       0.57702217       0.52646528 </v>
    <v>       0.58984717       0.66714118       0.18633709 </v>
    <v>       0.58160579       0.61012341       0.19278186 </v>
    <v>       0.58512722       0.56997135       0.15896079 </v>
    <v>       0.60006087       0.67119688       0.14624101 </v>
   </varray>
  </structure>
  <varray name="forces" >
   <v>      -0.00462565      -0.01608319       0.02999568 </v>
   <v>       0.01387925      -0.01597570       0.00766080 </v>
   <v>      -0.00137256       0.06275129       0.00665987 </v>
   <v>       0.00157187       0.00396936      -0.01417775 </v>
   <v>       0.00346743      -0.01005792       0.01135555 </v>
   <v>       0.00313957      -0.01338534       0.01183526 </v>
   <v>      -0.02958947      -0.00443358      -0.00915888 </v>
   <v>      -0.01052524       0.00015664       0.00481068 </v>
   <v>      -0.00301669       0.05361069       0.01229675 </v>
   <v>      -0.00228806      -0.01976083       0.01508896 </v>
   <v>      -0.02266489      -0.02546778      -0.02782630 </v>
   <v>       0.01317820       0.02285916       0.01316162 </v>
   <v>      -0.01697977      -0.02412111      -0.00796692 </v>
   <v>       0.00108413      -0.00088967      -0.00135382 </v>
   <v>      -0.00794466      -0.01172320       0.00546792 </v>
   <v>       0.00967476       0.02147317       0.00717016 </v>
   <v>      -0.01462617      -0.00789010      -0.01887399 </v>
   <v>       0.00040626      -0.01500739       0.00830438 </v>
   <v>       0.02458661       0.02719233      -0.01643688 </v>
   <v>       0.00637211      -0.00388625       0.00186930 </v>
   <v>       0.00019318       0.01925580       0.01172916 </v>
   <v>       0.01369044       0.02334725      -0.02311863 </v>
   <v>      -0.01489281      -0.01067095      -0.00373046 </v>
   <v>      -0.02194966       0.02041772       0.00646774 </v>
[...]
       <r>   -26.5912     3.6445     0.6897 </r>
       <r>   -26.4904     4.8750     1.1813 </r>
       <r>   -26.3895     4.1162     1.5964 </r>
       <r>   -26.2887     2.3274     1.8311 </r>
       <r>   -26.1878     1.0290     1.9349 </r>
       <r>   -26.0870     0.4050     1.9758 </r>
       <r>   -25.9861     0.1520     1.9911 </r>
       <r>   -25.8853     0.0560     1.9967 </r>
       <r>   -25.7844     0.0205     1.9988 </r>
       <r>   -25.6836     0.0000     2.0000 </r>
       <r>   -25.5828     0.0000     2.0000 </r>
       <r>   -25.4819     0.0000     2.0000 </r>
       <r>   -25.3811     0.0000     2.0000 </r>
       <r>   -25.2802     0.0035     2.0003 </r>
       <r>   -25.1794     0.0060     2.0010 </r>
       <r>   -25.0785     0.0165     2.0026 </r>
       <r>   -24.9777     0.0450     2.0072 </r>
       <r>   -24.8768     0.1223     2.0195 </r>
       <r>   -24.7760     0.3277     2.0525 </r>
       <r>   -24.6751     0.8448     2.1377 </r>
       <r>   -24.5743     1.9774     2.3371 </r>
       <r>   -24.4734     3.7419     2.7145 </r>
       <r>   -24.3726     4.8888     3.2075 </r>
       <r>   -24.2717     4.0275     3.6137 </r>
       <r>   -24.1709     2.2379     3.8394 </r>
       <r>   -24.0700     0.9805     3.9383 </r>
       <r>   -23.9692     0.3844     3.9770 </r>
       <r>   -23.8683     0.1441     3.9916 </r>
       <r>   -23.7675     0.0531     3.9969 </r>
       <r>   -23.6666     0.0194     3.9989 </r>
       <r>   -23.5658     0.0000     4.0000 </r>
       <r>   -23.4649     0.0000     4.0000 </r>
       <r>   -23.3641     0.0000     4.0000 </r>
       <r>   -23.2633     0.0000     4.0000 </r>
       <r>   -23.1624     0.0000     4.0000 </r>
       <r>   -23.0616     0.0000     4.0000 </r>
       <r>   -22.9607     0.0000     4.0000 </r>
       <r>   -22.8599     0.0000     4.0000 </r>
       <r>   -22.7590     0.0000     4.0000 </r>
       <r>   -22.6582     0.0000     4.0000 </r>
       <r>   -22.5573     0.0000     4.0000 </r>
       <r>   -22.4565     0.0000     4.0000 </r>
       <r>   -22.3556     0.0000     4.0000 </r>
       <r>   -22.2548     0.0000     4.0000 </r>
       <r>   -22.1539     0.0000     4.0000 </r>
       <r>   -22.0531     0.0000     4.0000 </r>
       <r>   -21.9522     0.0000     4.0000 </r>
       <r>   -21.8514     0.0000     4.0000 </r>
       <r>   -21.7505     0.0000     4.0000 </r>
       <r>   -21.6497     0.0000     4.0000 </r>
       <r>   -21.5488     0.0000     4.0000 </r>
       <r>   -21.4480     0.0000     4.0000 </r>
       <r>   -21.3471     0.0000     4.0000 </r>
       <r>   -21.2463     0.0000     4.0000 </r>
       <r>   -21.1454     0.0000     4.0000 </r>
       <r>   -21.0446     0.0000     4.0000 </r>
       <r>   -20.9438     0.0000     4.0000 </r>
       <r>   -20.8429     0.0000     4.0000 </r>
       <r>   -20.7421     0.0000     4.0000 </r>
       <r>   -20.6412     0.0000     4.0000 </r>
       <r>   -20.5404     0.0000     4.0000 </r>
       <r>   -20.4395     0.0000     4.0000 </r>
       <r>   -20.3387     0.0000     4.0000 </r>
       <r>   -20.2378     0.0000     4.0000 </r>
       <r>   -20.1370     0.0000     4.0000 </r>
       <r>   -20.0361     0.0000     4.0000 </r>
       <r>   -19.9353     0.0000     4.0000 </r>
       <r>   -19.8344     0.0000     4.0000 </r>
       <r>   -19.7336     0.0000     4.0000 </r>
       <r>   -19.6327     0.0000     4.0000 </r>
       <r>   -19.5319     0.0000     4.0000 </r>
       <r>   -19.4310     0.0000     4.0000 </r>
       <r>   -19.3302     0.0000     4.0000 </r>
       <r>   -19.2293     0.0000     4.0000 </r>
       <r>   -19.1285     0.0000     4.0000 </r>
       <r>   -19.0276     0.0000     4.0000 </r>
       <r>   -18.9268     0.0000     4.0000 </r>
       <r>   -18.8259     0.0000     4.0000 </r>
       <r>   -18.7251     0.0000     4.0000 </r>
       <r>   -18.6242     0.0000     4.0000 </r>
       <r>   -18.5234     0.0000     4.0000 </r>
       <r>   -18.4226     0.0000     4.0000 </r>
       <r>   -18.3217     0.0000     4.0000 </r>
       <r>   -18.2209     0.0000     4.0000 </r>
       <r>   -18.1200     0.0000     4.0000 </r>
       <r>   -18.0192     0.0000     4.0000 </r>
       <r>   -17.9183     0.0000     4.0000 </r>
       <r>   -17.8175     0.0000     4.0000 </r>
       <r>   -17.7166     0.0000     4.0000 </r>
       <r>   -17.6158     0.0000     4.0000 </r>
       <r>   -17.5149     0.0000     4.0000 </r>
       <r>   -17.4141     0.0000     4.0000 </r>
       <r>   -17.3132     0.0000     4.0000 </r>
       <r>   -17.2124     0.0000     4.0000 </r>
       <r>   -17.1115     0.0000     4.0000 </r>
       <r>   -17.0107     0.0000     4.0000 </r>
       <r>   -16.9098     0.0000     4.0000 </r>
       <r>   -16.8090     0.0000     4.0000 </r>
       <r>   -16.7081     0.0000     4.0000 </r>
       <r>   -16.6073     0.0000     4.0000 </r>
       <r>   -16.5064     0.0000     4.0000 </r>
       <r>   -16.4056     0.0000     4.0000 </r>
       <r>   -16.3047     0.0000     4.0000 </r>
       <r>   -16.2039     0.0000     4.0000 </r>
       <r>   -16.1031     0.0000     4.0000 </r>
       <r>   -16.0022     0.0000     4.0000 </r>
       <r>   -15.9014     0.0000     4.0000 </r>
       <r>   -15.8005     0.0000     4.0000 </r>
       <r>   -15.6997     0.0000     4.0000 </r>
       <r>   -15.5988     0.0000     4.0000 </r>
       <r>   -15.4980     0.0000     4.0000 </r>
       <r>   -15.3971     0.0000     4.0000 </r>
       <r>   -15.2963     0.0000     4.0000 </r>
       <r>   -15.1954     0.0054     4.0005 </r>
       <r>   -15.0946     0.0094     4.0015 </r>
       <r>   -14.9937     0.0258     4.0041 </r>
       <r>   -14.8929     0.0703     4.0112 </r>
       <r>   -14.7920     0.1901     4.0304 </r>
       <r>   -14.6912     0.5029     4.0811 </r>
       <r>   -14.5903     1.2545     4.2076 </r>
       <r>   -14.4895     2.7207     4.4820 </r>
       <r>   -14.3886     4.4496     4.9307 </r>
       <r>   -14.2878     4.7462     5.4093 </r>
       <r>   -14.1869     3.2271     5.7348 </r>
       <r>   -14.0861     1.5823     5.8944 </r>
       <r>   -13.9852     0.6521     5.9601 </r>
       <r>   -13.8844     0.2493     5.9853 </r>
       <r>   -13.7836     0.0925     5.9946 </r>
       <r>   -13.6827     0.0340     5.9980 </r>
       <r>   -13.5819     0.0124     5.9993 </r>
       <r>   -13.4810     0.0000     6.0000 </r>
       <r>   -13.3802     0.0000     6.0000 </r>
       <r>   -13.2793     0.0000     6.0000 </r>
       <r>   -13.1785     0.0000     6.0000 </r>
       <r>   -13.0776     0.0000     6.0000 </r>
       <r>   -12.9768     0.0000     6.0000 </r>
       <r>   -12.8759     0.0000     6.0000 </r>
       <r>   -12.7751     0.0054     6.0005 </r>
       <r>   -12.6742     0.0095     6.0015 </r>
       <r>   -12.5734     0.0259     6.0041 </r>
       <r>   -12.4725     0.0706     6.0112 </r>
       <r>   -12.3717     0.1911     6.0305 </r>
       <r>   -12.2708     0.5053     6.0815 </r>
       <r>   -12.1700     1.2649     6.2090 </r>
       <r>   -12.0691     2.7383     6.4852 </r>
       <r>   -11.9683     4.4792     6.9369 </r>
       <r>   -11.8674     4.8044     7.4214 </r>
       <r>   -11.7666     3.3913     7.7634 </r>
       <r>   -11.6657     2.0364     7.9688 </r>
       <r>   -11.5649     1.8137     8.1517 </r>
       <r>   -11.4641     2.8463     8.4387 </r>
       <r>   -11.3632     4.6168     8.9043 </r>
       <r>   -11.2624     5.5143     9.4604 </r>
       <r>   -11.1615     5.1438     9.9792 </r>
       <r>   -11.0607     5.6589    10.5506 </r>
       <r>   -10.9598     8.3120    11.3888 </r>
       <r>   -10.8590    11.5717    12.5558 </r>
       <r>   -10.7581    12.9280    13.8596 </r>
       <r>   -10.6573    11.2952    14.9987 </r>
       <r>   -10.5564     8.5185    15.8577 </r>
       <r>   -10.4556     7.9897    16.6643 </r>
       <r>   -10.3547    10.6383    17.7371 </r>
       <r>   -10.2539    13.9630    19.1453 </r>
       <r>   -10.1530    15.2063    20.6788 </r>
       <r>   -10.0522    14.0882    22.1004 </r>
       <r>    -9.9513    11.5809    23.2693 </r>
       <r>    -9.8505     9.7680    24.2552 </r>
       <r>    -9.7496    10.9342    25.3579 </r>
       <r>    -9.6488    14.1831    26.7882 </r>
       <r>    -9.5479    16.9027    28.4928 </r>
       <r>    -9.4471    19.4884    30.4605 </r>
       <r>    -9.3462    22.5960    32.7411 </r>
       <r>    -9.2454    23.6765    35.1288 </r>
       <r>    -9.1446    21.1236    37.2599 </r>
       <r>    -9.0437    18.4847    39.1240 </r>
       <r>    -8.9429    17.9548    40.9347 </r>
       <r>    -8.8420    18.1895    42.7701 </r>
       <r>    -8.7412    19.9995    44.7876 </r>
       <r>    -8.6403    24.5624    47.2658 </r>
       <r>    -8.5395    31.8349    50.4776 </r>
       <r>    -8.4386    42.6305    54.7790 </r>
       <r>    -8.3378    58.7325    60.7027 </r>
       <r>    -8.2369    76.8730    68.4552 </r>
       <r>    -8.1361    88.3476    77.3670 </r>
       <r>    -8.0352    92.1487    86.6600 </r>
       <r>    -7.9344    96.5416    96.3969 </r>
       <r>    -7.8335   104.5920   106.9460 </r>
       <r>    -7.7327   112.2295   118.2666 </r>
       <r>    -7.6318   118.6343   130.2317 </r>
       <r>    -7.5310   129.0246   143.2457 </r>
       <r>    -7.4301   143.3102   157.7057 </r>
       <r>    -7.3293   152.9722   173.1399 </r>
       <r>    -7.2284   157.3886   189.0154 </r>
       <r>    -7.1276   162.8189   205.4399 </r>
       <r>    -7.0267   175.4292   223.1382 </r>
       <r>    -6.9259   198.3189   243.1468 </r>
       <r>    -6.8250   226.3335   265.9796 </r>
       <r>    -6.7242   251.7814   291.3753 </r>
       <r>    -6.6234   269.4002   318.5552 </r>
       <r>    -6.5225   276.9070   346.4894 </r>
       <r>    -6.4217   276.1883   374.3503 </r>
       <r>    -6.3208   277.0554   402.2989 </r>
       <r>    -6.2200   288.5829   431.4107 </r>
       <r>    -6.1191   304.9089   462.1728 </r>
       <r>    -6.0183   316.8565   494.1396 </r>
       <r>    -5.9174   326.1758   527.0515 </r>
       <r>    -5.8166   343.0109   561.6601 </r>
       <r>    -5.7157   376.0131   599.5983 </r>
       <r>    -5.6149   415.8479   641.5514 </r>
       <r>    -5.5140   441.6641   686.1053 </r>
       <r>    -5.4132   439.3529   730.4291 </r>
       <r>    -5.3123   395.6446   770.3476 </r>
       <r>    -5.2115   306.1156   801.2404 </r>
       <r>    -5.1106   201.4531   821.5761 </r>
       <r>    -5.0098   119.0972   833.6018 </r>
       <r>    -4.9089    70.0699   840.6912 </r>
       <r>    -4.8081    45.2135   845.2765 </r>
       <r>    -4.7072    32.7851   848.6100 </r>
       <r>    -4.6064    27.6114   851.4206 </r>
       <r>    -4.5055    27.6985   854.2489 </r>
       <r>    -4.4047    30.0481   857.2966 </r>
       <r>    -4.3039    31.8495   860.5143 </r>
       <r>    -4.2030    30.8182   863.6242 </r>
       <r>    -4.1022    27.2575   866.3755 </r>
       <r>    -4.0013    24.4270   868.8417 </r>
       <r>    -3.9005    23.7577   871.2388 </r>
       <r>    -3.7996    23.2321   873.5817 </r>
       <r>    -3.6988    20.9356   875.6952 </r>
       <r>    -3.5979    19.0752   877.6196 </r>
       <r>    -3.4971    19.0060   879.5384 </r>
       <r>    -3.3962    20.4741   881.6048 </r>
       <r>    -3.2954    23.1785   883.9447 </r>
       <r>    -3.1945    25.1600   886.4820 </r>
       <r>    -3.0937    27.3405   889.2400 </r>
       <r>    -2.9928    31.0345   892.3734 </r>
       <r>    -2.8920    35.4396   895.9474 </r>
       <r>    -2.7911    39.7221   899.9549 </r>
       <r>    -2.6903    41.9876   904.1903 </r>
       <r>    -2.5894    41.1723   908.3424 </r>
       <r>    -2.4886    36.5830   912.0339 </r>
       <r>    -2.3877    30.8912   915.1500 </r>
       <r>    -2.2869    28.9891   918.0745 </r>
       <r>    -2.1860    30.7586   921.1785 </r>
       <r>    -2.0852    32.3863   924.4454 </r>
       <r>    -1.9844    31.6816   927.6437 </r>
       <r>    -1.8835    29.9668   930.6677 </r>
       <r>    -1.7827    28.5251   933.5483 </r>
       <r>    -1.6818    28.4513   936.4194 </r>
       <r>    -1.5810    30.3002   939.4766 </r>
       <r>    -1.4801    34.3536   942.9426 </r>
       <r>    -1.3793    39.6735   946.9466 </r>
       <r>    -1.2784    42.0463   951.1897 </r>
       <r>    -1.1776    41.1697   955.3426 </r>
       <r>    -1.0767    39.7175   959.3507 </r>
       <r>    -0.9759    37.5196   963.1356 </r>
       <r>    -0.8750    33.2595   966.4913 </r>
       <r>    -0.7742    29.6854   969.4873 </r>
       <r>    -0.6733    29.5835   972.4725 </r>
       <r>    -0.5725    30.3450   975.5370 </r>
       <r>    -0.4716    28.9711   978.4608 </r>
       <r>    -0.3708    26.8453   981.1704 </r>
       <r>    -0.2699    25.8156   983.7766 </r>
       <r>    -0.1691    25.4497   986.3472 </r>
       <r>    -0.0682    26.5334   989.0243 </r>
       <r>     0.0326    29.4871   991.9997 </r>
       <r>     0.1335    32.8245   995.3115 </r>
       <r>     0.2343    36.5306   998.9978 </r>
       <r>     0.3351    42.5006  1003.2862 </r>
       <r>     0.4360    51.5374  1008.4836 </r>
       <r>     0.5368    63.3346  1014.8725 </r>
       <r>     0.6377    75.9217  1022.5300 </r>
       <r>     0.7385    84.6620  1031.0689 </r>
       <r>     0.8394    84.3821  1039.5810 </r>
       <r>     0.9402    71.3604  1046.7800 </r>
       <r>     1.0411    48.0249  1051.6245 </r>
       <r>     1.1419    25.3188  1054.1801 </r>
       <r>     1.2428    11.0697  1055.2984 </r>
       <r>     1.3436     4.3438  1055.7395 </r>
       <r>     1.4445     1.5957  1055.9064 </r>
       <r>     1.5453     0.5499  1055.9680 </r>
       <r>     1.6462     0.1633  1055.9905 </r>
       <r>     1.7470     0.0276  1055.9984 </r>
       <r>     1.8479     0.0000  1056.0000 </r>
       <r>     1.9487     0.0000  1056.0000 </r>
       <r>     2.0496     0.0000  1056.0000 </r>
       <r>     2.1504     0.0000  1056.0000 </r>
       <r>     2.2513     0.0000  1056.0000 </r>
       <r>     2.3521     0.0000  1056.0000 </r>
      </set>
     </set>
    </array>
   </total>
  </dos>
 </calculation>
 <structure name="finalpos" >
  <crystal>
   <varray name="basis" >
    <v>      20.54540472       0.00000000       0.00000000 </v>
    <v>       0.00000000      22.56932871       0.00000000 </v>
    <v>       0.00000000       0.00000000      23.64248389 </v>
   </varray>
   <i name="volume">  10962.92503504 </i>
   <varray name="rec_basis" >
    <v>       0.04867268       0.00000000       0.00000000 </v>
    <v>       0.00000000       0.04430792       0.00000000 </v>
    <v>       0.00000000       0.00000000       0.04229674 </v>
   </varray>
  </crystal>
  <varray name="positions" >
   <v>       0.46508037       0.54548657       0.75116750 </v>
   <v>       0.57762497       0.56525930       0.71490180 </v>
   <v>       0.52393888       0.46060938       0.70489870 </v>
   <v>       0.48776106       0.64352785       0.70302551 </v>
   <v>       0.37822264       0.58925119       0.68971310 </v>
   <v>       0.39990320       0.47630263       0.68872588 </v>
   <v>       0.68790313       0.58264190       0.67193965 </v>
   <v>       0.63878369       0.47983281       0.66535728 </v>
   <v>       0.60291254       0.66298671       0.66106323 </v>
   <v>       0.48303624       0.54630874       0.64869552 </v>
   <v>       0.58489073       0.37922364       0.65539024 </v>
   <v>       0.51208907       0.73650755       0.64787216 </v>
   <v>       0.46314173       0.37375968       0.60901053 </v>
   <v>       0.40299573       0.68842926       0.63605897 </v>
   <v>       0.31402450       0.52043881       0.62255007 </v>
   <v>       0.29733676       0.63193461       0.62174928 </v>
   <v>       0.33859130       0.41072722       0.62106869 </v>
   <v>       0.59646291       0.56564655       0.60889767 </v>
   <v>       0.54373955       0.46012144       0.60004356 </v>
   <v>       0.50735912       0.64283673       0.59585145 </v>
   <v>       0.39775176       0.59052400       0.58391963 </v>
   <v>       0.41865689       0.47641919       0.58390578 </v>
   <v>       0.70571455       0.52373049       0.58108826 </v>
   <v>       0.68097310       0.63797431       0.57908864 </v>
   <v>       0.65765851       0.42263821       0.57492336 </v>
   <v>       0.58769822       0.71720735       0.56578820 </v>
   <v>       0.57063381       0.34687289       0.55667288 </v>
   <v>       0.50253445       0.54577321       0.54137115 </v>
   <v>       0.46504928       0.73471697       0.54884313 </v>
   <v>       0.47200595       0.30950793       0.50782903 </v>
   <v>       0.35094145       0.68165108       0.53846238 </v>
   <v>       0.31277284       0.46668047       0.52615371 </v>
   <v>       0.37532230       0.37294170       0.52729481 </v>
   <v>       0.60821415       0.50762089       0.51795076 </v>
   <v>       0.58966633       0.62373681       0.51328874 </v>
   <v>       0.68354547       0.34453756       0.50572218 </v>
   <v>       0.48632225       0.42068109       0.51650403 </v>
   <v>       0.45308380       0.63801866       0.49858916 </v>
   <v>       0.40273822       0.53450596       0.49084873 </v>
   <v>       0.56421179       0.58090142       0.24802939 </v>
   <v>       0.48843566       0.49107658       0.25270863 </v>
   <v>       0.61183307       0.47777953       0.27335731 </v>
   <v>       0.41332594       0.40392448       0.25860587 </v>
   <v>       0.53412137       0.38779078       0.27458163 </v>
   <v>       0.65324014       0.37651432       0.29792169 </v>
   <v>       0.45108360       0.59027526       0.29558174 </v>
   <v>       0.37389877       0.50052003       0.29931101 </v>
   <v>       0.65144168       0.57032501       0.32626284 </v>
   <v>       0.55211763       0.64239807       0.34120494 </v>
   <v>       0.53943731       0.53152717       0.34077067 </v>
   <v>       0.69701809       0.46379406       0.35284219 </v>
   <v>       0.46263084       0.44217693       0.34587196 </v>
   <v>       0.44740436       0.33107348       0.33221809 </v>
   <v>       0.34042791       0.59723171       0.34321158 </v>
   <v>       0.57146941       0.31655526       0.35210517 </v>
   <v>       0.58420981       0.42885279       0.36612957 </v>
   <v>       0.34948182       0.40115285       0.35062945 </v>
   <v>       0.44147639       0.65344453       0.38297094 </v>
   <v>       0.42417726       0.54055158       0.38850745 </v>
   <v>       0.69795870       0.57545300       0.48892591 </v>
   <v>       0.67408438       0.36414176       0.40226703 </v>
   <v>       0.30999240       0.51646797       0.42594936 </v>
   <v>       0.63603746       0.63429708       0.41616351 </v>
   <v>       0.62980737       0.52235361       0.41741098 </v>
   <v>       0.52666211       0.58841736       0.43205963 </v>
   <v>       0.51354972       0.48274865       0.43736263 </v>
   <v>       0.53419653       0.69824531       0.44735923 </v>
   <v>       0.49885925       0.37023812       0.42170605 </v>
   <v>       0.48452968       0.26365974       0.40974624 </v>
   <v>       0.39915176       0.43932002       0.44003423 </v>
   <v>       0.70668871       0.45839522       0.47725958 </v>
   <v>       0.38628771       0.32823665       0.42763437 </v>
   <v>       0.34773970       0.62500038       0.44416520 </v>
   <v>       0.40823384       0.72631519       0.45564159 </v>
   <v>       0.29232729       0.39849568       0.44518378 </v>
   <v>       0.59876758       0.41047456       0.47207104 </v>
   <v>       0.58584359       0.30090010       0.45798435 </v>
   <v>       0.29620216       0.57637498       0.52705145 </v>
   <v>       0.59476973       0.67933099       0.17715891 </v>
   <v>       0.58720400       0.61833108       0.17585107 </v>
   <v>       0.59393831       0.59116425       0.13145999 </v>
   <v>       0.60506409       0.69173951       0.13834931 </v>
  </varray>
 </structure>
</modeling>
