Cu78_Adsorbate_Calc_see_submitSL        
           1
    20.545405    0.000000    0.000000
     0.000000   22.569329    0.000000
     0.000000    0.000000   23.642484
   Cu   O    C    O    H 
  78   1   1   1   1
Direct configuration=     1
   0.46623412  0.54517994  0.74955021
   0.57881673  0.56517878  0.71376096
   0.52478106  0.45951599  0.70403695
   0.48878475  0.64319110  0.70157502
   0.37920504  0.58879100  0.68849546
   0.40104594  0.47587088  0.68740848
   0.68904957  0.58309305  0.67097805
   0.64053725  0.48012464  0.66475593
   0.60332806  0.66245587  0.65911997
   0.48419584  0.54558490  0.64730990
   0.58715048  0.37919663  0.65519439
   0.51292460  0.73579752  0.64542134
   0.46382224  0.37492493  0.60871133
   0.40344838  0.68769036  0.63511345
   0.31398495  0.52018858  0.62176045
   0.29738390  0.63099022  0.62152530
   0.33836112  0.41073830  0.62013512
   0.59717833  0.56520493  0.60801193
   0.54536559  0.45942383  0.59947913
   0.50743617  0.64185733  0.59424427
   0.39792256  0.58977985  0.58320831
   0.41821340  0.47616820  0.58254974
   0.70783011  0.52397514  0.58029389
   0.68157013  0.63774939  0.57790931
   0.65976544  0.42249762  0.57457612
   0.58716823  0.71653174  0.56239715
   0.57179154  0.34813778  0.55567032
   0.50270114  0.54457727  0.53950552
   0.46448880  0.73375999  0.54762953
   0.47277976  0.31071803  0.50672461
   0.34993282  0.68085705  0.53824272
   0.31078959  0.46732966  0.52522693
   0.37637524  0.37484657  0.52626486
   0.60982647  0.50714081  0.51826017
   0.59002236  0.62192467  0.51266977
   0.68456795  0.34550083  0.50374762
   0.48740100  0.42191001  0.51571374
   0.45172798  0.63726209  0.49753462
   0.40112764  0.53477548  0.49023574
   0.56389205  0.58210862  0.25213107
   0.48837783  0.49463208  0.25117777
   0.61277808  0.48133026  0.27207756
   0.41357262  0.40732633  0.25809608
   0.53384513  0.39184064  0.27332905
   0.65294898  0.37952728  0.29616693
   0.45148303  0.59355088  0.29500028
   0.37355622  0.50341079  0.29967873
   0.65191231  0.57195045  0.32701007
   0.55310525  0.64443499  0.34091621
   0.53936358  0.53302686  0.34117610
   0.69721450  0.46481928  0.35286488
   0.46259464  0.44510981  0.34515600
   0.44723879  0.33373723  0.33105075
   0.34098037  0.60070654  0.34178334
   0.57098909  0.31914723  0.35005771
   0.58404326  0.43069774  0.36508620
   0.34907159  0.40379817  0.34972695
   0.44204377  0.65527869  0.38326840
   0.42405036  0.54324132  0.38829610
   0.69906916  0.57598718  0.48812418
   0.67348303  0.36446050  0.40035191
   0.31013957  0.51663458  0.42319422
   0.63632307  0.63660562  0.41659065
   0.63006994  0.52332234  0.41766605
   0.52700773  0.59034842  0.43096723
   0.51360300  0.48458676  0.43704924
   0.53388916  0.69923821  0.44988919
   0.49902234  0.37179076  0.42076126
   0.48489215  0.26555239  0.40788509
   0.39970017  0.44024093  0.43908818
   0.70785507  0.45873204  0.47640634
   0.38643136  0.32918752  0.42641785
   0.34674230  0.62521650  0.44310158
   0.40661088  0.72669803  0.45560377
   0.29275215  0.39899114  0.44434507
   0.59954703  0.41149109  0.47095476
   0.58636398  0.30255205  0.45604286
   0.29526214  0.57702842  0.52646581
   0.58975477  0.66693789  0.18657547
   0.58076349  0.60847618  0.19543863
   0.58500040  0.57022569  0.15962913
   0.60003973  0.67111807  0.14629590
Direct configuration=     2
   0.46623257  0.54517503  0.74955901
   0.57882131  0.56517411  0.71376290
   0.52478013  0.45953432  0.70403921
   0.48878524  0.64319256  0.70157114
   0.37920619  0.58878841  0.68849837
   0.40104723  0.47586694  0.68741250
   0.68904057  0.58309175  0.67097565
   0.64053379  0.48012546  0.66475733
   0.60332705  0.66247091  0.65912315
   0.48419535  0.54557969  0.64731393
   0.58714381  0.37918954  0.65518720
   0.51292877  0.73580395  0.64542491
   0.46381715  0.37491850  0.60870922
   0.40344865  0.68769005  0.63511297
   0.31398260  0.52018557  0.62176191
   0.29738685  0.63099618  0.62152722
   0.33835677  0.41073594  0.62012975
   0.59717878  0.56520044  0.60801433
   0.54537347  0.45943164  0.59947467
   0.50743798  0.64185635  0.59424479
   0.39792260  0.58978534  0.58321153
   0.41821743  0.47617521  0.58254249
   0.70782556  0.52397227  0.58029286
   0.68156326  0.63775521  0.57791090
   0.65976322  0.42249517  0.57457285
   0.58716704  0.71653205  0.56240282
   0.57178991  0.34813343  0.55566697
   0.50269931  0.54458093  0.53950616
   0.46448934  0.73376041  0.54763186
   0.47278154  0.31071523  0.50672307
   0.34993439  0.68086398  0.53823743
   0.31079884  0.46732627  0.52522623
   0.37637708  0.37484184  0.52626332
   0.60981664  0.50714895  0.51825788
   0.59003189  0.62192712  0.51267672
   0.68457433  0.34550268  0.50375263
   0.48740203  0.42189487  0.51571754
   0.45173286  0.63726998  0.49753889
   0.40112725  0.53476873  0.49023636
   0.56288343  0.58057848  0.25556275
   0.48833155  0.49458346  0.25122448
   0.61279396  0.48126785  0.27212736
   0.41355739  0.40732830  0.25808845
   0.53384999  0.39183025  0.27332678
   0.65295023  0.37951236  0.29615869
   0.45144998  0.59353503  0.29501976
   0.37356058  0.50340406  0.29966811
   0.65193815  0.57194794  0.32703058
   0.55309508  0.64444035  0.34094244
   0.53934395  0.53298288  0.34122691
   0.69721931  0.46482884  0.35286719
   0.46259943  0.44509884  0.34516132
   0.44724108  0.33374270  0.33105273
   0.34098012  0.60071005  0.34178042
   0.57097971  0.31914580  0.35006162
   0.58404912  0.43069647  0.36509095
   0.34906812  0.40379144  0.34973068
   0.44204173  0.65527882  0.38326546
   0.42405770  0.54325391  0.38829038
   0.69906786  0.57598074  0.48812224
   0.67348477  0.36446977  0.40035543
   0.31014309  0.51662989  0.42319670
   0.63632888  0.63660713  0.41658840
   0.63006047  0.52332641  0.41765891
   0.52700447  0.59034580  0.43095296
   0.51360463  0.48458464  0.43705890
   0.53388789  0.69924556  0.44988716
   0.49901759  0.37179895  0.42075262
   0.48488683  0.26554085  0.40789170
   0.39970229  0.44024321  0.43908325
   0.70785367  0.45873653  0.47640554
   0.38642988  0.32919939  0.42641489
   0.34674328  0.62522363  0.44310366
   0.40661690  0.72669463  0.45559852
   0.29275380  0.39899355  0.44434636
   0.59954280  0.41149930  0.47094492
   0.58635840  0.30254861  0.45604895
   0.29526243  0.57702217  0.52646528
   0.58984717  0.66714118  0.18633709
   0.58160579  0.61012341  0.19278186
   0.58512722  0.56997135  0.15896079
   0.60006087  0.67119688  0.14624101
Direct configuration=     3
   0.46623235  0.54517433  0.74956026
   0.57882198  0.56517341  0.71376323
   0.52478008  0.45953709  0.70403948
   0.48878532  0.64319272  0.70157054
   0.37920636  0.58878795  0.68849886
   0.40104737  0.47586635  0.68741298
   0.68903911  0.58309155  0.67097526
   0.64053328  0.48012545  0.66475753
   0.60332691  0.66247330  0.65912368
   0.48419523  0.54557880  0.64731457
   0.58714269  0.37918840  0.65518601
   0.51292941  0.73580497  0.64542547
   0.46381631  0.37491741  0.60870888
   0.40344871  0.68769001  0.63511292
   0.31398221  0.52018504  0.62176214
   0.29738733  0.63099714  0.62152752
   0.33835605  0.41073559  0.62012896
   0.59717878  0.56519978  0.60801468
   0.54537467  0.45943285  0.59947397
   0.50743830  0.64185617  0.59424486
   0.39792261  0.58978619  0.58321203
   0.41821811  0.47617624  0.58254154
   0.70782483  0.52397179  0.58029271
   0.68156219  0.63775611  0.57791118
   0.65976286  0.42249475  0.57457238
   0.58716683  0.71653211  0.56240378
   0.57178969  0.34813269  0.55566643
   0.50269898  0.54458151  0.53950637
   0.46448942  0.73376050  0.54763225
   0.47278173  0.31071492  0.50672282
   0.34993459  0.68086510  0.53823659
   0.31080030  0.46732566  0.52522617
   0.37637735  0.37484105  0.52626308
   0.60981530  0.50715020  0.51825761
   0.59003336  0.62192748  0.51267764
   0.68457530  0.34550300  0.50375340
   0.48740217  0.42189238  0.51571814
   0.45173370  0.63727115  0.49753949
   0.40112723  0.53476768  0.49023642
   0.56284961  0.58053361  0.25568585
   0.48832195  0.49457293  0.25123085
   0.61279775  0.48125588  0.27213466
   0.41355486  0.40732845  0.25808731
   0.53385064  0.39182846  0.27332644
   0.65295055  0.37951004  0.29615751
   0.45143981  0.59353326  0.29502434
   0.37356098  0.50340280  0.29966665
   0.65194578  0.57194747  0.32703643
   0.55309305  0.64444411  0.34095042
   0.53933693  0.53296757  0.34125056
   0.69722008  0.46483027  0.35286764
   0.46259997  0.44509685  0.34516237
   0.44724139  0.33374353  0.33105303
   0.34098003  0.60071052  0.34178012
   0.57097841  0.31914560  0.35006220
   0.58404979  0.43069595  0.36509194
   0.34906757  0.40379034  0.34973110
   0.44204124  0.65527898  0.38326504
   0.42405875  0.54325559  0.38828986
   0.69906760  0.57597966  0.48812192
   0.67348501  0.36447108  0.40035593
   0.31014365  0.51662910  0.42319710
   0.63632981  0.63660748  0.41658818
   0.63005901  0.52332685  0.41765809
   0.52700384  0.59034537  0.43095142
   0.51360480  0.48458433  0.43706052
   0.53388788  0.69924661  0.44988671
   0.49901681  0.37180012  0.42075132
   0.48488595  0.26553899  0.40789276
   0.39970263  0.44024354  0.43908250
   0.70785341  0.45873720  0.47640542
   0.38642958  0.32920122  0.42641447
   0.34674348  0.62522473  0.44310399
   0.40661793  0.72669405  0.45559771
   0.29275388  0.39899392  0.44434654
   0.59954232  0.41150042  0.47094351
   0.58635750  0.30254808  0.45604990
   0.29526250  0.57702114  0.52646520
   0.58987238  0.66721428  0.18627496
   0.58159825  0.61010742  0.19280796
   0.58515159  0.56995820  0.15885025
   0.60007241  0.67123359  0.14621038
Direct configuration=     4
   0.46622644  0.54515563  0.74959350
   0.57883977  0.56515466  0.71377197
   0.52477872  0.45961073  0.70404660
   0.48878735  0.64319713  0.70155460
   0.37921079  0.58877586  0.68851180
   0.40105118  0.47585066  0.68742564
   0.68900056  0.58308636  0.67096487
   0.64051978  0.48012498  0.66476287
   0.60332305  0.66253673  0.65913766
   0.48419208  0.54555514  0.64733163
   0.58711297  0.37915822  0.65515436
   0.51294645  0.73583200  0.64544029
   0.46379412  0.37488859  0.60869986
   0.40345017  0.68768901  0.63511149
   0.31397180  0.52017094  0.62176832
   0.29739992  0.63102260  0.62153562
   0.33833691  0.41072638  0.62010791
   0.59717904  0.56518225  0.60802392
   0.54540637  0.45946487  0.59945545
   0.50744671  0.64185148  0.59424696
   0.39792288  0.58980890  0.58322521
   0.41823606  0.47620348  0.58251631
   0.70780544  0.52395906  0.58028852
   0.68153374  0.63778019  0.57791860
   0.65975336  0.42248357  0.57455975
   0.58716137  0.71653379  0.56242928
   0.57178386  0.34811310  0.55565192
   0.50269025  0.54459704  0.53951191
   0.46449164  0.73376269  0.54764255
   0.47278694  0.31070656  0.50671621
   0.34994004  0.68089488  0.53821441
   0.31083891  0.46730958  0.52522451
   0.37638441  0.37482000  0.52625681
   0.60977971  0.50718338  0.51825048
   0.59007245  0.62193695  0.51270198
   0.68460126  0.34551129  0.50377395
   0.48740613  0.42182640  0.51573415
   0.45175585  0.63730209  0.49755540
   0.40112667  0.53473989  0.49023798
   0.56195190  0.57934248  0.25895341
   0.48806698  0.49429339  0.25139979
   0.61289847  0.48093817  0.27232851
   0.41348784  0.40733243  0.25805707
   0.53386796  0.39178099  0.27331761
   0.65295882  0.37944831  0.29612609
   0.45116998  0.59348637  0.29514598
   0.37357160  0.50336937  0.29962776
   0.65214811  0.57193508  0.32719175
   0.55303909  0.64454397  0.34116228
   0.53915071  0.53256111  0.34187824
   0.69724049  0.46486809  0.35287957
   0.46261426  0.44504404  0.34519041
   0.44724976  0.33376532  0.33106085
   0.34097762  0.60072316  0.34177208
   0.57094384  0.31914030  0.35007751
   0.58406738  0.43068214  0.36511838
   0.34905294  0.40376120  0.34974230
   0.44202816  0.65528331  0.38325386
   0.42408658  0.54330024  0.38827597
   0.69906086  0.57595102  0.48811358
   0.67349128  0.36450601  0.40036918
   0.31015844  0.51660814  0.42320787
   0.63635453  0.63661683  0.41658227
   0.63002027  0.52333845  0.41763647
   0.52698706  0.59033404  0.43091031
   0.51360941  0.48457621  0.43710362
   0.53388783  0.69927445  0.44987495
   0.49899613  0.37183117  0.42071683
   0.48486237  0.26548956  0.40792107
   0.39971188  0.44025236  0.43906246
   0.70784654  0.45875492  0.47640230
   0.38642169  0.32924981  0.42640313
   0.34674877  0.62525389  0.44311282
   0.40664524  0.72667866  0.45557610
   0.29275596  0.39900371  0.44435136
   0.59952939  0.41153000  0.47090611
   0.58633383  0.30253401  0.45607530
   0.29526448  0.57699390  0.52646306
   0.59054130  0.66915459  0.18462572
   0.58139809  0.60968276  0.19350056
   0.58579865  0.56960919  0.15591606
   0.60037871  0.67220818  0.14539710
Direct configuration=     5
   0.46622621  0.54515510  0.74959497
   0.57884040  0.56515395  0.71377233
   0.52477884  0.45961373  0.70404669
   0.48878745  0.64319724  0.70155389
   0.37921090  0.58877523  0.68851232
   0.40105130  0.47585007  0.68742573
   0.68899902  0.58308631  0.67096449
   0.64051925  0.48012477  0.66476306
   0.60332307  0.66253930  0.65913817
   0.48419180  0.54555434  0.64733224
   0.58711171  0.37915711  0.65515300
   0.51294709  0.73583301  0.64544099
   0.46379312  0.37488734  0.60869949
   0.40345025  0.68768912  0.63511143
   0.31397143  0.52017030  0.62176859
   0.29740045  0.63102370  0.62153591
   0.33833634  0.41072617  0.62010707
   0.59717896  0.56518186  0.60802425
   0.54540744  0.45946596  0.59945470
   0.50744716  0.64185142  0.59424704
   0.39792291  0.58980985  0.58322570
   0.41823657  0.47620454  0.58251536
   0.70780492  0.52395863  0.58028837
   0.68153283  0.63778104  0.57791893
   0.65975292  0.42248309  0.57455921
   0.58716132  0.71653400  0.56243027
   0.57178372  0.34811212  0.55565117
   0.50268985  0.54459780  0.53951245
   0.46449172  0.73376282  0.54764306
   0.47278717  0.31070609  0.50671583
   0.34994025  0.68089605  0.53821356
   0.31084053  0.46730885  0.52522455
   0.37638471  0.37481902  0.52625645
   0.60977831  0.50718477  0.51825010
   0.59007372  0.62193755  0.51270261
   0.68460214  0.34551169  0.50377480
   0.48740643  0.42182352  0.51573478
   0.45175687  0.63730326  0.49755597
   0.40112672  0.53473909  0.49023798
   0.56192279  0.57930658  0.25906151
   0.48805648  0.49428130  0.25140605
   0.61290306  0.48092470  0.27233621
   0.41348482  0.40733185  0.25805598
   0.53386853  0.39177865  0.27331738
   0.65295934  0.37944490  0.29612494
   0.45115623  0.59348433  0.29515242
   0.37357176  0.50336781  0.29962634
   0.65215846  0.57193400  0.32720018
   0.55303644  0.64455078  0.34117482
   0.53914041  0.53253929  0.34191214
   0.69724152  0.46486945  0.35288026
   0.46261419  0.44504113  0.34519148
   0.44725009  0.33376613  0.33106113
   0.34097689  0.60072374  0.34177179
   0.57094234  0.31914012  0.35007819
   0.58406857  0.43068070  0.36511959
   0.34905242  0.40375986  0.34974260
   0.44202723  0.65528376  0.38325344
   0.42408693  0.54330186  0.38827592
   0.69906052  0.57594981  0.48811324
   0.67349151  0.36450732  0.40036978
   0.31015909  0.51660725  0.42320835
   0.63635568  0.63661736  0.41658246
   0.63001904  0.52333855  0.41763627
   0.52698633  0.59033430  0.43091000
   0.51360918  0.48457518  0.43710676
   0.53388777  0.69927553  0.44987462
   0.49899522  0.37183217  0.42071553
   0.48486141  0.26548761  0.40792224
   0.39971236  0.44025268  0.43906172
   0.70784628  0.45875568  0.47640213
   0.38642140  0.32925185  0.42640276
   0.34674907  0.62525489  0.44311337
   0.40664632  0.72667796  0.45557541
   0.29275599  0.39900410  0.44435157
   0.59952905  0.41153112  0.47090468
   0.58633292  0.30253362  0.45607634
   0.29526468  0.57699271  0.52646296
   0.59054099  0.66914467  0.18462801
   0.58142447  0.60965626  0.19338174
   0.58580880  0.56969918  0.15591245
   0.60039793  0.67223786  0.14533063
Direct configuration=     6
   0.46622263  0.54514660  0.74961835
   0.57885055  0.56514267  0.71377805
   0.52478086  0.45966146  0.70404811
   0.48878906  0.64319895  0.70154265
   0.37921254  0.58876525  0.68852069
   0.40105315  0.47584062  0.68742729
   0.68897458  0.58308554  0.67095846
   0.64051076  0.48012146  0.66476612
   0.60332335  0.66258007  0.65914635
   0.48418729  0.54554151  0.64734198
   0.58709168  0.37913956  0.65513141
   0.51295723  0.73584901  0.64545211
   0.46377724  0.37486749  0.60869351
   0.40345163  0.68769100  0.63511059
   0.31396550  0.52016009  0.62177274
   0.29740886  0.63104117  0.62154050
   0.33832726  0.41072278  0.62009371
   0.59717759  0.56517564  0.60802956
   0.54542440  0.45948337  0.59944268
   0.50745436  0.64185044  0.59424828
   0.39792344  0.58982494  0.58323340
   0.41824477  0.47622137  0.58250022
   0.70779671  0.52395176  0.58028608
   0.68151830  0.63779450  0.57792411
   0.65974596  0.42247550  0.57455066
   0.58716061  0.71653727  0.56244599
   0.57178145  0.34809658  0.55563916
   0.50268342  0.54460997  0.53952089
   0.46449303  0.73376491  0.54765120
   0.47279080  0.31069862  0.50670979
   0.34994350  0.68091481  0.53820010
   0.31086645  0.46729730  0.52522510
   0.37638960  0.37480337  0.52625070
   0.60975608  0.50720677  0.51824415
   0.59009384  0.62194713  0.51271267
   0.68461603  0.34551799  0.50378833
   0.48741120  0.42177762  0.51574484
   0.45177306  0.63732182  0.49756504
   0.40112752  0.53472638  0.49023796
   0.56145966  0.57873563  0.26078121
   0.48788949  0.49408895  0.25150560
   0.61297610  0.48071046  0.27245868
   0.41343666  0.40732263  0.25803856
   0.53387760  0.39174138  0.27331365
   0.65296776  0.37939062  0.29610670
   0.45093758  0.59345179  0.29525494
   0.37357443  0.50334297  0.29960370
   0.65232320  0.57191691  0.32733430
   0.55299432  0.64465927  0.34137422
   0.53897654  0.53219215  0.34245143
   0.69725789  0.46489108  0.35289115
   0.46261311  0.44499486  0.34520850
   0.44725529  0.33377907  0.33106550
   0.34096530  0.60073298  0.34176714
   0.57091846  0.31913727  0.35008915
   0.58408752  0.43065778  0.36513884
   0.34904416  0.40373848  0.34974734
   0.44201239  0.65529098  0.38324668
   0.42409253  0.54332759  0.38827523
   0.69905511  0.57593055  0.48810786
   0.67349515  0.36452820  0.40037936
   0.31016945  0.51659311  0.42321596
   0.63637395  0.63662574  0.41658546
   0.62999953  0.52334007  0.41763304
   0.52697461  0.59033836  0.43090509
   0.51360542  0.48455872  0.43715671
   0.53388686  0.69929272  0.44986937
   0.49898079  0.37184810  0.42069488
   0.48484615  0.26545675  0.40794074
   0.39971995  0.44025778  0.43905000
   0.70784225  0.45876774  0.47639957
   0.38641670  0.32928429  0.42639685
   0.34675393  0.62527078  0.44312215
   0.40666349  0.72666685  0.45556440
   0.29275647  0.39901042  0.44435484
   0.59952371  0.41154885  0.47088197
   0.58631843  0.30252736  0.45609290
   0.29526798  0.57697377  0.52646132
   0.59053605  0.66898684  0.18466451
   0.58184415  0.60923460  0.19149156
   0.58597031  0.57113069  0.15585506
   0.60070369  0.67270993  0.14427326
Direct configuration=     7
   0.46622212  0.54514588  0.74962072
   0.57885154  0.56514154  0.71377867
   0.52478125  0.45966620  0.70404812
   0.48878927  0.64319916  0.70154147
   0.37921270  0.58876401  0.68852160
   0.40105328  0.47583956  0.68742727
   0.68897196  0.58308559  0.67095774
   0.64050990  0.48012092  0.66476641
   0.60332357  0.66258418  0.65914712
   0.48418673  0.54554035  0.64734295
   0.58708963  0.37913782  0.65512913
   0.51295833  0.73585055  0.64545312
   0.46377548  0.37486529  0.60869273
   0.40345197  0.68769125  0.63511051
   0.31396497  0.52015903  0.62177322
   0.29740981  0.63104312  0.62154086
   0.33832648  0.41072264  0.62009224
   0.59717734  0.56517531  0.60803016
   0.54542608  0.45948504  0.59944132
   0.50745527  0.64185048  0.59424852
   0.39792335  0.58982653  0.58323426
   0.41824557  0.47622303  0.58249866
   0.70779616  0.52395098  0.58028586
   0.68151697  0.63779588  0.57792486
   0.65974527  0.42247486  0.57454977
   0.58716067  0.71653785  0.56244775
   0.57178126  0.34809512  0.55563787
   0.50268268  0.54461147  0.53952193
   0.46449318  0.73376533  0.54765216
   0.47279105  0.31069787  0.50670935
   0.34994388  0.68091691  0.53819871
   0.31086942  0.46729602  0.52522524
   0.37639000  0.37480157  0.52625003
   0.60975364  0.50720913  0.51824334
   0.59009567  0.62194831  0.51271338
   0.68461745  0.34551877  0.50378969
   0.48741174  0.42177277  0.51574624
   0.45177465  0.63732346  0.49756588
   0.40112780  0.53472536  0.49023787
   0.56143984  0.57872556  0.26086137
   0.48787089  0.49406771  0.25151640
   0.61298359  0.48068814  0.27247231
   0.41343085  0.40732049  0.25803698
   0.53387851  0.39173684  0.27331327
   0.65296907  0.37938362  0.29610512
   0.45091165  0.59344815  0.29526710
   0.37357411  0.50334012  0.29960155
   0.65234343  0.57191477  0.32735077
   0.55298943  0.64467469  0.34139977
   0.53895543  0.53214818  0.34252154
   0.69725995  0.46489276  0.35289247
   0.46261182  0.44498894  0.34521044
   0.44725585  0.33378006  0.33106588
   0.34096312  0.60073392  0.34176677
   0.57091588  0.31913704  0.35009037
   0.58409023  0.43065373  0.36514141
   0.34904313  0.40373614  0.34974778
   0.44201019  0.65529225  0.38324618
   0.42409202  0.54332968  0.38827595
   0.69905442  0.57592851  0.48810731
   0.67349577  0.36453045  0.40038049
   0.31017062  0.51659156  0.42321682
   0.63637635  0.63662671  0.41658632
   0.62999818  0.52333987  0.41763373
   0.52697331  0.59033995  0.43090683
   0.51360414  0.48455616  0.43716451
   0.53388699  0.69929468  0.44986882
   0.49897924  0.37184936  0.42069283
   0.48484445  0.26545357  0.40794273
   0.39972078  0.44025837  0.43904879
   0.70784183  0.45876913  0.47639929
   0.38641616  0.32928774  0.42639611
   0.34675465  0.62527242  0.44312306
   0.40666543  0.72666581  0.45556326
   0.29275647  0.39901107  0.44435527
   0.59952345  0.41155044  0.47087994
   0.58631706  0.30252703  0.45609442
   0.29526850  0.57697168  0.52646116
   0.59054665  0.66895214  0.18461390
   0.58185542  0.60926842  0.19146650
   0.58600092  0.57118208  0.15574333
   0.60072246  0.67275928  0.14421736
Direct configuration=     8
   0.46620928  0.54512761  0.74968056
   0.57887658  0.56511296  0.71379425
   0.52479097  0.45978572  0.70404846
   0.48879456  0.64320443  0.70151190
   0.37921672  0.58873286  0.68854451
   0.40105666  0.47581273  0.68742660
   0.68890601  0.58308698  0.67093964
   0.64048816  0.48010728  0.66477374
   0.60332920  0.66268768  0.65916657
   0.48417240  0.54551124  0.64736747
   0.58703808  0.37909394  0.65507165
   0.51298605  0.73588946  0.64547871
   0.46373127  0.37480980  0.60867312
   0.40346048  0.68769752  0.63510870
   0.31395157  0.52013241  0.62178532
   0.29743378  0.63109223  0.62154969
   0.33830678  0.41071918  0.62005533
   0.59717101  0.56516714  0.60804530
   0.54546849  0.45952716  0.59940683
   0.50747820  0.64185137  0.59425457
   0.39792131  0.58986679  0.58325581
   0.41826582  0.47626469  0.58245925
   0.70778235  0.52393125  0.58028047
   0.68148336  0.63783069  0.57794372
   0.65972781  0.42245858  0.57452717
   0.58716215  0.71655223  0.56249228
   0.57177641  0.34805840  0.55560524
   0.50266401  0.54464908  0.53954815
   0.46449681  0.73377588  0.54767645
   0.47279739  0.31067910  0.50669826
   0.34995350  0.68096983  0.53816356
   0.31094421  0.46726373  0.52522869
   0.37639997  0.37475626  0.52623306
   0.60969222  0.50726876  0.51822288
   0.59014188  0.62197801  0.51273137
   0.68465332  0.34553855  0.50382389
   0.48742519  0.42165051  0.51578159
   0.45181470  0.63736479  0.49758709
   0.40113507  0.53469987  0.49023545
   0.56094069  0.57847186  0.26288090
   0.48740231  0.49353241  0.25178837
   0.61317231  0.48012595  0.27281558
   0.41328461  0.40726683  0.25799705
   0.53390143  0.39162259  0.27330356
   0.65300222  0.37920726  0.29606520
   0.45025839  0.59335657  0.29557331
   0.37356606  0.50326833  0.29954735
   0.65285318  0.57186078  0.32776577
   0.55286636  0.64506335  0.34204326
   0.53842380  0.53104059  0.34428783
   0.69731191  0.46493509  0.35292578
   0.46257955  0.44483969  0.34525922
   0.44727006  0.33380506  0.33107546
   0.34090804  0.60075773  0.34175742
   0.57085088  0.31913115  0.35012116
   0.58415860  0.43055177  0.36520606
   0.34901698  0.40367697  0.34975890
   0.44195486  0.65532428  0.38323358
   0.42407908  0.54338239  0.38829401
   0.69903719  0.57587724  0.48809345
   0.67351123  0.36458692  0.40040892
   0.31020017  0.51655248  0.42323861
   0.63643683  0.63665109  0.41660785
   0.62996428  0.52333482  0.41765113
   0.52694041  0.59038019  0.43095079
   0.51357179  0.48449151  0.43736095
   0.53389046  0.69934406  0.44985502
   0.49894029  0.37188102  0.42064100
   0.48480153  0.26537355  0.40799282
   0.39974162  0.44027311  0.43901827
   0.70783141  0.45880409  0.47639215
   0.38640252  0.32937460  0.42637728
   0.34677279  0.62531376  0.44314590
   0.40671439  0.72663956  0.45553465
   0.29275656  0.39902727  0.44436622
   0.59951689  0.41159055  0.47082880
   0.58628265  0.30251888  0.45613266
   0.29528185  0.57691892  0.52645724
   0.59081350  0.66807791  0.18333893
   0.58213948  0.61012039  0.19083532
   0.58677206  0.57247669  0.15292866
   0.60119539  0.67400247  0.14280926
Direct configuration=     9
   0.46620867  0.54512707  0.74968336
   0.57887752  0.56511193  0.71379513
   0.52479170  0.45979104  0.70404844
   0.48879500  0.64320458  0.70151069
   0.37921682  0.58873121  0.68854553
   0.40105671  0.47581124  0.68742633
   0.68890273  0.58308722  0.67093876
   0.64048713  0.48010627  0.66477396
   0.60332955  0.66269234  0.65916754
   0.48417158  0.54551043  0.64736842
   0.58703518  0.37909196  0.65506873
   0.51298731  0.73589146  0.64547995
   0.46372939  0.37480719  0.60867218
   0.40346105  0.68769799  0.63510864
   0.31395104  0.52013118  0.62178588
   0.29743490  0.63109458  0.62154977
   0.33830601  0.41071916  0.62005330
   0.59717050  0.56516714  0.60804608
   0.54546980  0.45952867  0.59940517
   0.50747946  0.64185160  0.59425502
   0.39792108  0.58986878  0.58325679
   0.41826687  0.47626626  0.58245759
   0.70778156  0.52393046  0.58028017
   0.68148197  0.63783223  0.57794460
   0.65972707  0.42245807  0.57452601
   0.58716223  0.71655332  0.56249419
   0.57177632  0.34805668  0.55560367
   0.50266291  0.54465125  0.53954976
   0.46449709  0.73377670  0.54767765
   0.47279755  0.31067797  0.50669761
   0.34995402  0.68097203  0.53816221
   0.31094808  0.46726210  0.52522912
   0.37640046  0.37475395  0.52623214
   0.60968915  0.50727148  0.51822183
   0.59014396  0.62197958  0.51273203
   0.68465467  0.34553970  0.50382531
   0.48742529  0.42164425  0.51578364
   0.45181642  0.63736652  0.49758833
   0.40113563  0.53469910  0.49023549
   0.56094043  0.57849066  0.26289555
   0.48738313  0.49350958  0.25180206
   0.61317827  0.48010304  0.27283221
   0.41327627  0.40726209  0.25799548
   0.53390230  0.39161603  0.27330343
   0.65300474  0.37919652  0.29606392
   0.45022778  0.59335139  0.29558879
   0.37356473  0.50326478  0.29954538
   0.65287739  0.57185688  0.32778820
   0.55285961  0.64508399  0.34207847
   0.53840132  0.53099148  0.34436504
   0.69731483  0.46493633  0.35292737
   0.46257533  0.44483011  0.34526178
   0.44727066  0.33380547  0.33107592
   0.34090328  0.60075886  0.34175756
   0.57084775  0.31913060  0.35012276
   0.58416322  0.43054348  0.36521011
   0.34901538  0.40367391  0.34975937
   0.44195096  0.65532658  0.38323358
   0.42407609  0.54338423  0.38829631
   0.69903657  0.57587495  0.48809293
   0.67351232  0.36458923  0.40041018
   0.31020169  0.51655058  0.42323967
   0.63644049  0.63665259  0.41660998
   0.62996407  0.52333378  0.41765386
   0.52693798  0.59038345  0.43095698
   0.51356868  0.48448638  0.43737581
   0.53389069  0.69934657  0.44985441
   0.49893851  0.37188167  0.42063897
   0.48479944  0.26536982  0.40799529
   0.39974231  0.44027375  0.43901708
   0.70783086  0.45880589  0.47639181
   0.38640198  0.32937846  0.42637633
   0.34677373  0.62531574  0.44314698
   0.40671661  0.72663892  0.45553356
   0.29275659  0.39902800  0.44436660
   0.59951672  0.41159200  0.47082700
   0.58628081  0.30251881  0.45613439
   0.29528277  0.57691647  0.52645713
   0.59083905  0.66809984  0.18325953
   0.58214178  0.61006305  0.19080392
   0.58680062  0.57256081  0.15284061
   0.60120824  0.67404700  0.14277560
Direct configuration=    10
   0.46619606  0.54511597  0.74974086
   0.57889682  0.56509062  0.71381333
   0.52480658  0.45990040  0.70404806
   0.48880407  0.64320754  0.70148590
   0.37921884  0.58869747  0.68856637
   0.40105782  0.47578063  0.68742073
   0.68883545  0.58309221  0.67092067
   0.64046610  0.48008548  0.66477863
   0.60333678  0.66278814  0.65918750
   0.48415468  0.54549378  0.64738793
   0.58697555  0.37905141  0.65500873
   0.51301313  0.73593235  0.64550528
   0.46369077  0.37475358  0.60865298
   0.40347264  0.68770749  0.63510732
   0.31394011  0.52010595  0.62179742
   0.29745789  0.63114273  0.62155131
   0.33829012  0.41071864  0.62001155
   0.59715999  0.56516714  0.60806219
   0.54549663  0.45955967  0.59937107
   0.50750533  0.64185632  0.59426426
   0.39791626  0.58990959  0.58327702
   0.41828863  0.47629847  0.58242347
   0.70776543  0.52391433  0.58027400
   0.68145346  0.63786370  0.57796264
   0.65971182  0.42244765  0.57450220
   0.58716391  0.71657563  0.56253348
   0.57177432  0.34802133  0.55557130
   0.50264030  0.54469580  0.53958277
   0.46450286  0.73379354  0.54770237
   0.47280098  0.31065491  0.50668422
   0.34996482  0.68101721  0.53813448
   0.31102755  0.46722872  0.52523796
   0.37641070  0.37470650  0.52621336
   0.60962617  0.50732722  0.51820046
   0.59018679  0.62201169  0.51274563
   0.68468245  0.34556337  0.50385446
   0.48742732  0.42151560  0.51582580
   0.45185158  0.63740203  0.49761378