82
Lattice="20.54540472 0.0 0.0 0.0 22.56932871 0.0 0.0 0.0 23.64248389" Properties=species:S:1:pos:R:3:forces:R:3 energy=-106.55011333 free_energy=-106.89375176 pbc="T T T"
Cu       9.55526000      12.31127000      17.75947000      -0.00098600      -0.00014000       0.00604900
Cu      11.86754000      12.75752000      16.90205000       0.00155500      -0.00160200       0.00103000
Cu      10.76454000      10.39564000      16.66556000       0.00183600       0.00193100      -0.00018800
Cu      10.02125000      14.52399000      16.62127000       0.00138300       0.00341500      -0.00060400
Cu       7.77074000      13.29900000      16.30653000      -0.00190000       0.00325900      -0.00108700
Cu       8.21617000      10.74983000      16.28319000      -0.00108700       0.00208300       0.00130300
Cu      14.13325000      13.14984000      15.88632000      -0.00289300      -0.00222600       0.00010700
Cu      13.12407000      10.82950000      15.73070000       0.00614100      -0.00144800       0.00033600
Cu      12.38708000      14.96317000      15.62918000       0.00028400      -0.00082600      -0.00462900
Cu       9.92418000      12.32982000      15.33677000       0.00765900       0.00179900      -0.00476300
Cu      12.01682000       8.55882000      15.49505000       0.00169000      -0.00171100       0.00206500
Cu      10.52108000      16.62248000      15.31731000      -0.00211600      -0.00046100       0.00090300
Cu       9.51543000       8.43551000      14.39852000      -0.00226400       0.00044100       0.00112400
Cu       8.27971000      15.53739000      15.03801000      -0.00074800       0.00101500      -0.00069700
Cu       6.45176000      11.74595000      14.71863000       0.00071200       0.00325800      -0.00090900
Cu       6.10890000      14.26234000      14.69970000      -0.00091600       0.00013300      -0.00240400
Cu       6.95650000       9.26984000      14.68361000      -0.00163900       0.00038800      -0.00057000
Cu      12.25457000      12.76626000      14.39585000      -0.00357300       0.00140700       0.00023900
Cu      11.17135000      10.38463000      14.18652000       0.00065200       0.00260700       0.00097200
Cu      10.42390000      14.50839000      14.08741000       0.00034700       0.00074400       0.00203200
Cu       8.17197000      13.32773000      13.80531000      -0.00081400      -0.00483200       0.00161700
Cu       8.60148000      10.75246000      13.80498000       0.00279800       0.00383600      -0.00222800
Cu      14.49919000      11.82025000      13.73837000      -0.00126100      -0.00231200       0.00271700
Cu      13.99087000      14.39865000      13.69109000       0.00146300      -0.00221000      -0.00031300
Cu      13.51186000       9.53866000      13.59262000      -0.00174300      -0.00346400      -0.00350100
Cu      12.07450000      16.18689000      13.37664000      -0.00458900       0.00289500      -0.00421500
Cu      11.72390000       7.82869000      13.16113000      -0.00185200      -0.00086800       0.00039800
Cu      10.32477000      12.31774000      12.79936000      -0.00284900      -0.00124100       0.00041200
Cu       9.55463000      16.58207000      12.97601000       0.00116000      -0.00144000      -0.00636600
Cu       9.69755000       6.98539000      12.00634000      -0.00375400      -0.00254000      -0.00036000
Cu       7.21023000      15.38441000      12.73059000      -0.00114000      -0.00213100      -0.00058100
Cu       6.42604000      10.53266000      12.43958000      -0.00174300       0.00073500      -0.00226400
Cu       7.71115000       8.41704000      12.46656000      -0.00055500       0.00188300      -0.00010900
Cu      12.49601000      11.45666000      12.24564000       0.00186100      -0.00308300       0.00435500
Cu      12.11493000      14.07732000      12.13542000      -0.00169700       0.00176800      -0.00081700
Cu      14.04372000       7.77598000      11.95653000      -0.00118000      -0.00129600       0.00252400
Cu       9.99169000       9.49449000      12.21144000      -0.00040700      -0.00095800      -0.00383100
Cu       9.30879000      14.39965000      11.78789000       0.00380500      -0.00043500      -0.00525000
Cu       8.27442000      12.06344000      11.60488000      -0.00009200      -0.00092300      -0.00228300
Cu      11.59196000      13.11056000       5.86403000      -0.00092000      -0.00394900       0.00606200
Cu      10.03511000      11.08327000       5.97466000      -0.00147000       0.00293500       0.00048800
Cu      12.57036000      10.78316000       6.46285000       0.00075300       0.00073700      -0.00188300
Cu       8.49195000       9.11630000       6.11409000      -0.00190900      -0.00398900      -0.00089600
Cu      10.97374000       8.75218000       6.49179000      -0.00056100       0.00194400      -0.00071700
Cu      13.42108000       8.49768000       7.04361000       0.00185700      -0.00442300      -0.00217800
Cu       9.26770000      13.32212000       6.98829000       0.00534000       0.00095800       0.00026300
Cu       7.68190000      11.29640000       7.07646000      -0.00259800      -0.00506100      -0.00162400
Cu      13.38413000      12.87185000       7.71366000      -0.00102300       0.00117500      -0.00153300
Cu      11.34348000      14.49849000       8.06693000      -0.00034300       0.00045300      -0.00162200
Cu      11.08296000      11.99621000       8.05667000       0.00460000      -0.00258100      -0.00094700
Cu      14.32052000      10.46752000       8.34207000      -0.00127400       0.00426400       0.00015500
Cu       9.50494000       9.97964000       8.17727000       0.00421500      -0.00322300       0.00146300
Cu       9.19210000       7.47211000       7.85446000       0.00051800      -0.00245100      -0.00154900
Cu       6.99423000      13.47912000       8.11437000      -0.00045700      -0.00251600       0.00017100
Cu      11.74107000       7.14444000       8.32464000      -0.00105500      -0.00318000       0.00383100
Cu      12.00283000       9.67892000       8.65621000      -0.00723200       0.00198600       0.00641200
Cu       7.18025000       9.05375000       8.28975000       0.00097600      -0.00062600      -0.00179400
Cu       9.07031000      14.74780000       9.05438000       0.00020300      -0.00024100       0.00137100
Cu       8.71489000      12.19989000       9.18528000       0.00369500      -0.00084200       0.00143600
Cu      14.33984000      12.98759000      11.55942000       0.00134000       0.00103200       0.00372700
Cu      13.84934000       8.21844000       9.51059000       0.00027500      -0.00264200       0.00331400
Cu       6.36892000      11.65634000      10.07050000       0.00060000      -0.00188900      -0.00125300
Cu      13.06765000      14.31566000       9.83914000       0.00193300       0.00146100      -0.00095200
Cu      12.93965000      11.78917000       9.86863000       0.00285900      -0.00100900      -0.00447500
Cu      10.82049000      13.28018000      10.21496000      -0.00529700       0.00904500       0.00005100
Cu      10.55109000      10.89531000      10.34034000      -0.00080400      -0.00989200       0.00437600
Cu      10.97528000      15.75893000      10.57668000      -0.00012100      -0.00534100       0.00093000
Cu      10.24927000       8.35603000       9.97018000       0.00533100       0.00198500      -0.00018400
Cu       9.95486000       5.95062000       9.68742000       0.00212900       0.00067700       0.00380600
Cu       8.20073000       9.91516000      10.40350000       0.00028700      -0.00068400      -0.00376900
Cu      14.51921000      10.34567000      11.28360000      -0.00017500      -0.00095000       0.00042200
Cu       7.93644000       7.40808000      10.11034000      -0.00207500       0.00242700      -0.00044700
Cu       7.14445000      14.10584000      10.50117000      -0.00160700       0.00097100      -0.00281400
Cu       8.38733000      16.39245000      10.77250000       0.00156300      -0.00031500      -0.00102800
Cu       6.00598000       8.99378000      10.52525000       0.00392200      -0.00014500       0.00058100
Cu      12.30192000       9.26414000      11.16093000       0.00143800      -0.00125400       0.00211400
Cu      12.03639000       6.79111000      10.82789000      -0.00103400      -0.00144500      -0.00201600
Cu       6.08559000      13.00840000      12.46081000       0.00008700       0.00172600      -0.00089500
O       12.21978000      15.33204000       4.18848000      -0.00745600      -0.01890900      -0.01107800
C       12.06434000      13.95532000       4.15756000      -0.00357800       0.01897200      -0.01482400
O       12.20270000      13.34218000       3.10804000       0.00260400       0.02051400       0.01232700
H       12.43129000      15.61210000       3.27092000       0.00291900       0.00684200       0.02496200
