78
Lattice="20.54540472 0.0 0.0 0.0 22.56932871 0.0 0.0 0.0 23.64248389" Properties=species:S:1:pos:R:3:momenta:R:3:forces:R:3 energy=-79.91278587 free_energy=-80.23491787 pbc="F F F"
Cu       9.57897000      12.30435000      17.72122000       0.00000000       0.00000000       0.00000000       0.00098800       0.00286200       0.00269200
Cu      11.89202000      12.75571000      16.87508000       0.00000000       0.00000000       0.00000000       0.00068600      -0.00084400       0.00412700
Cu      10.78184000      10.37095000      16.64518000       0.00000000       0.00000000       0.00000000      -0.00153800       0.00237700       0.00454600
Cu      10.04228000      14.51639000      16.58698000       0.00000000       0.00000000       0.00000000       0.00019500       0.00034500      -0.00014200
Cu       7.79092000      13.28862000      16.27774000       0.00000000       0.00000000       0.00000000      -0.00045800       0.00377800      -0.00090900
Cu       8.23965000      10.74009000      16.25204000       0.00000000       0.00000000       0.00000000       0.00237700       0.00169300       0.00495100
Cu      14.15681000      13.16002000      15.86359000       0.00000000       0.00000000       0.00000000      -0.00150100      -0.00041300       0.00377900
Cu      13.16010000      10.83609000      15.71648000       0.00000000       0.00000000       0.00000000      -0.00154900       0.00023600       0.00177500
Cu      12.39562000      14.95117000      15.58323000       0.00000000       0.00000000       0.00000000       0.00152900       0.00399100       0.00250300
Cu       9.94800000      12.31349000      15.30401000       0.00000000       0.00000000       0.00000000       0.00082700       0.00529400       0.00412400
Cu      12.06325000       8.55822000      15.49043000       0.00000000       0.00000000       0.00000000      -0.00861000       0.00009500      -0.00007600
Cu      10.53824000      16.60645000      15.25936000       0.00000000       0.00000000       0.00000000      -0.00127800       0.00298800       0.00210400
Cu       9.52942000       8.46181000      14.39145000       0.00000000       0.00000000       0.00000000      -0.00077700       0.00463100      -0.00168500
Cu       8.28901000      15.52071000      15.01566000       0.00000000       0.00000000       0.00000000      -0.00214300       0.00222300       0.00172400
Cu       6.45095000      11.74031000      14.69996000       0.00000000       0.00000000       0.00000000       0.00561800       0.00253000      -0.00113200
Cu       6.10987000      14.24102000      14.69440000       0.00000000       0.00000000       0.00000000       0.00151600       0.00187200      -0.00021300
Cu       6.95177000       9.27009000      14.66154000       0.00000000       0.00000000       0.00000000       0.00749100      -0.00224000      -0.00367400
Cu      12.26927000      12.75630000      14.37491000       0.00000000       0.00000000       0.00000000       0.00309500       0.00090800       0.00419900
Cu      11.20475000      10.36888000      14.17318000       0.00000000       0.00000000       0.00000000      -0.00062200       0.00215800       0.00320500
Cu      10.42548000      14.48629000      14.04941000       0.00000000       0.00000000       0.00000000      -0.00290900      -0.00121200       0.00288000
Cu       8.17548000      13.31093000      13.78849000       0.00000000       0.00000000       0.00000000       0.00232700       0.00132800       0.00248600
Cu       8.59236000      10.74679000      13.77293000       0.00000000       0.00000000       0.00000000       0.00507700       0.00469200       0.00282300
Cu      14.54266000      11.82577000      13.71959000       0.00000000       0.00000000       0.00000000      -0.00305500       0.00115500      -0.00158600
Cu      14.00314000      14.39357000      13.66321000       0.00000000       0.00000000       0.00000000       0.00223500       0.00128300       0.00122100
Cu      13.55515000       9.53549000      13.58441000       0.00000000       0.00000000       0.00000000      -0.00252200       0.00095200       0.00378600
Cu      12.06361000      16.17164000      13.29646000       0.00000000       0.00000000       0.00000000       0.00074100       0.00053700       0.00276900
Cu      11.74769000       7.85724000      13.13743000       0.00000000       0.00000000       0.00000000       0.00041600       0.00054500      -0.00001500
Cu      10.32820000      12.29074000      12.75525000       0.00000000       0.00000000       0.00000000      -0.00224200       0.00268700       0.00086500
Cu       9.54311000      16.56047000      12.94732000       0.00000000       0.00000000       0.00000000       0.00039500       0.00032800       0.00101800
Cu       9.71345000       7.01270000      11.98023000       0.00000000       0.00000000       0.00000000       0.00164700      -0.00362700      -0.00426900
Cu       7.18951000      15.36648000      12.72540000       0.00000000       0.00000000       0.00000000       0.00086900       0.00386700      -0.00013200
Cu       6.38529000      10.54732000      12.41767000       0.00000000       0.00000000       0.00000000      -0.00237800       0.00281900       0.00184000
Cu       7.73278000       8.46004000      12.44221000       0.00000000       0.00000000       0.00000000       0.00034400       0.00161900      -0.00127000
Cu      12.52914000      11.44582000      12.25296000       0.00000000       0.00000000       0.00000000      -0.00352800      -0.00014200       0.00014500
Cu      12.12224000      14.03642000      12.12078000       0.00000000       0.00000000       0.00000000       0.00194700      -0.00246900       0.00015500
Cu      14.06472000       7.79772000      11.90984000       0.00000000       0.00000000       0.00000000       0.00120800       0.00038300      -0.00022900
Cu      10.01385000       9.52224000      12.19275000       0.00000000       0.00000000       0.00000000      -0.00324300      -0.00091700      -0.00088900
Cu       9.28093000      14.38257000      11.76295000       0.00000000       0.00000000       0.00000000       0.00412200       0.00145300       0.00095100
Cu       8.24133000      12.06953000      11.59039000       0.00000000       0.00000000       0.00000000      -0.00128500       0.00430200      -0.00247000
Cu      11.58626000      13.13925000       5.95760000       0.00000000       0.00000000       0.00000000       0.00262500       0.00096400      -0.00388300
Cu      10.03396000      11.16356000       5.93842000       0.00000000       0.00000000       0.00000000      -0.00172900      -0.00082600      -0.00196900
Cu      12.58976000      10.86336000       6.43254000       0.00000000       0.00000000       0.00000000       0.00089400      -0.00214600      -0.00082400
Cu       8.49703000       9.19308000       6.10204000       0.00000000       0.00000000       0.00000000       0.00205200      -0.00460200      -0.00038300
Cu      10.96806000       8.84359000       6.46218000       0.00000000       0.00000000       0.00000000       0.00092000      -0.00135400      -0.00317000
Cu      13.41510000       8.56569000       7.00213000       0.00000000       0.00000000       0.00000000       0.00291200      -0.00107300      -0.00107000
Cu       9.27593000      13.39606000       6.97452000       0.00000000       0.00000000       0.00000000      -0.00009700      -0.00630500      -0.00155800
Cu       7.67486000      11.36165000       7.08516000       0.00000000       0.00000000       0.00000000      -0.00201500      -0.00306600      -0.00580100
Cu      13.39378000      12.90854000       7.73131000       0.00000000       0.00000000       0.00000000       0.00017400       0.00005900      -0.00235000
Cu      11.36378000      14.54446000       8.06008000       0.00000000       0.00000000       0.00000000       0.00069100      -0.00713800      -0.00181700
Cu      11.08146000      12.03010000       8.06620000       0.00000000       0.00000000       0.00000000      -0.00431500      -0.00096700      -0.00583300
Cu      14.32455000      10.49065000       8.34260000       0.00000000       0.00000000       0.00000000      -0.00106600      -0.00089400      -0.00096000
Cu       9.50419000      10.04584000       8.16034000       0.00000000       0.00000000       0.00000000      -0.00206000      -0.00151600      -0.00164900
Cu       9.18870000       7.53222000       7.82686000       0.00000000       0.00000000       0.00000000      -0.00237400      -0.00077700      -0.00167100
Cu       7.00558000      13.55754000       8.08061000       0.00000000       0.00000000       0.00000000      -0.00241700      -0.00124200      -0.00113400
Cu      11.73121000       7.20294000       8.27623000       0.00000000       0.00000000       0.00000000      -0.00161400      -0.00139300       0.00132200
Cu      11.99940000       9.72056000       8.63154000       0.00000000       0.00000000       0.00000000       0.00237000      -0.00106200      -0.00214400
Cu       7.17182000       9.11346000       8.26841000       0.00000000       0.00000000       0.00000000      -0.00082700       0.00019200       0.00099500
Cu       9.08197000      14.78920000       9.06142000       0.00000000       0.00000000       0.00000000       0.00266200      -0.00243900      -0.00058500
Cu       8.71228000      12.26058000       9.18029000       0.00000000       0.00000000       0.00000000      -0.00295000      -0.00414700      -0.00457600
Cu      14.36266000      12.99965000      11.54047000       0.00000000       0.00000000       0.00000000       0.00169700      -0.00078100      -0.00011100
Cu      13.83698000       8.22562000       9.46531000       0.00000000       0.00000000       0.00000000       0.00210900      -0.00058500      -0.00022200
Cu       6.37194000      11.66010000      10.00536000       0.00000000       0.00000000       0.00000000      -0.00120500      -0.00151300       0.00874600
Cu      13.07351000      14.36776000       9.84924000       0.00000000       0.00000000       0.00000000      -0.00218600      -0.00107100      -0.00185200
Cu      12.94505000      11.81103000       9.87467000       0.00000000       0.00000000       0.00000000      -0.00080200      -0.00183200       0.00443500
Cu      10.82759000      13.32377000      10.18915000       0.00000000       0.00000000       0.00000000       0.00068500      -0.00242600       0.00255200
Cu      10.55218000      10.93680000      10.33292000       0.00000000       0.00000000       0.00000000      -0.00079700      -0.00464100      -0.00429600
Cu      10.96897000      15.78133000      10.63650000       0.00000000       0.00000000       0.00000000       0.00096200      -0.00112700      -0.00064600
Cu      10.25262000       8.39106000       9.94785000       0.00000000       0.00000000       0.00000000      -0.00302200      -0.00174700      -0.00215400
Cu       9.96231000       5.99335000       9.64341000       0.00000000       0.00000000       0.00000000      -0.00062400       0.00237300      -0.00248800
Cu       8.21200000       9.93594000      10.38114000       0.00000000       0.00000000       0.00000000      -0.00280400      -0.00146200      -0.00059500
Cu      14.54317000      10.35327000      11.26343000       0.00000000       0.00000000       0.00000000      -0.00126400      -0.00562800       0.00020200
Cu       7.93939000       7.42953000      10.08158000       0.00000000       0.00000000       0.00000000      -0.00310200       0.00199700      -0.00659600
Cu       7.12396000      14.11071000      10.47602000       0.00000000       0.00000000       0.00000000       0.00148800      -0.00021800      -0.00015400
Cu       8.35398000      16.40109000      10.77161000       0.00000000       0.00000000       0.00000000       0.00673600      -0.00096300       0.00021400
Cu       6.01471000       9.00496000      10.50542000       0.00000000       0.00000000       0.00000000      -0.00027800       0.00410700       0.00114900
Cu      12.31794000       9.28707000      11.13455000       0.00000000       0.00000000       0.00000000       0.00161700       0.00112800      -0.00169600
Cu      12.04709000       6.82840000      10.78198000       0.00000000       0.00000000       0.00000000      -0.00145400      -0.00003700       0.00064600
Cu       6.06628000      13.02315000      12.44696000       0.00000000       0.00000000       0.00000000       0.00239900       0.00009200      -0.00005300
