192
Lattice="16.8180535453 0.0 0.0 0.0 16.8180535453 0.0 0.0 0.0 16.8180535453" Properties=species:S:1:pos:R:3:forces:R:3:tags:I:1:initial_charges:R:1 energy=-234.638474161 pbc="F F F"
Cu       7.71653760       9.35666148      14.23026872       0.00147211       0.00153132      -0.00144814        1       0.00000000
Cu      10.00827300       9.81319640      13.35257497       0.00101975      -0.00202338       0.00040349        1       0.00000000
Cu       8.90589434       7.46301649      13.09966801      -0.00364035      -0.00417633      -0.00069689        1       0.00000000
Cu       8.21564028      11.54526877      13.02271246      -0.00082991       0.00354372      -0.00006336        1       0.00000000
Cu       5.98494392      10.34584419      12.75597321      -0.00527466       0.00000662      -0.00407552        1       0.00000000
Cu       6.44385567       7.78367578      12.69679495      -0.00457844       0.00346036       0.00477225        1       0.00000000
Cu      12.30433718      10.27128364      12.39727657      -0.00089093      -0.00264925       0.00091153        1       0.00000000
Cu      11.29808111       7.95437124      12.25682455       0.00339319      -0.00051954      -0.00028543        1       0.00000000
Cu      10.52249556      12.01755218      12.05088371       0.00125904       0.00198071       0.00408449        1       0.00000000
Cu       8.08719153       9.38655270      11.74813418       0.00129138      -0.00074850       0.00351193        0       0.00000000
Cu      10.23384133       5.66978640      12.05266248      -0.00361955       0.00054234      -0.00077313        1       0.00000000
Cu       8.71175507      13.69369113      11.76075371      -0.00139017      -0.00229109      -0.00111992        1       0.00000000
Cu       7.65604460       5.83188701      11.22850958       0.00020460       0.00081808      -0.00206223        1       0.00000000
Cu       6.48226395      12.56588602      11.50734183      -0.00165018       0.00037598      -0.00097507        1       0.00000000
Cu       4.60237023       8.86465497      11.23140120       0.00020030       0.00061559       0.00402376        1       0.00000000
Cu       4.25805127      11.37062418      11.25274874       0.00222857       0.00074483      -0.00258494        1       0.00000000
Cu       5.03958257       6.38271133      11.20218966       0.00306141      -0.00166202      -0.00051922        1       0.00000000
Cu      10.37639558       9.83662022      10.89894682       0.00156882       0.00160572       0.00290456        0       0.00000000
Cu       9.38366213       7.52820492      10.66724038      -0.00656715       0.00006947      -0.00041626        0       0.00000000
Cu       8.56919474      11.52071741      10.52776675      -0.00123194       0.00739892       0.00257340        0       0.00000000
Cu       6.34031257      10.39818724      10.29678817      -0.00341766       0.00080627       0.00404218        0       0.00000000
Cu       6.69564042       7.91332421      10.22931041      -0.00043189      -0.00087172      -0.00257875        0       0.00000000
Cu      12.68172913       8.95706735      10.29019422      -0.00212983      -0.00323030       0.00262154        1       0.00000000
Cu      12.14161855      11.47171460      10.18026444       0.00144480       0.00040405       0.00139223        1       0.00000000
Cu      11.67408123       6.68422340      10.12653599       0.00236701      -0.00017774      -0.00262824        1       0.00000000
Cu      10.21491965      13.22568337       9.76923531      -0.00328807      -0.00180171       0.00132793        1       0.00000000
Cu       9.82730692       5.00223555       9.75070363      -0.00119579      -0.00117433       0.00205267        1       0.00000000
Cu       8.45432538       9.35842477       9.21062842      -0.00448155      -0.00034281      -0.00042357        0       0.00000000
Cu       7.70290855      13.60171404       9.47599018       0.00188181       0.00183051       0.00099565        1       0.00000000
Cu       7.82386511       4.10531306       8.57191057       0.00129780       0.00224189      -0.00097412        1       0.00000000
Cu       5.34229103      12.46220495       9.26597835      -0.00343475      -0.00001594       0.00473808        1       0.00000000
Cu       4.53361908       7.69989865       8.97000768       0.00211496       0.00346207       0.00193639        1       0.00000000
Cu       5.87526121       5.58688266       9.05300844       0.00100216      -0.00332238      -0.00288308        1       0.00000000
Cu      10.70352759       8.58128620       8.84707184       0.00452866      -0.00065287      -0.00568936        0       0.00000000
Cu      10.24826241      11.04214631       8.69904495       0.00274000      -0.00113489       0.00197909        1       0.00000000
Cu      12.18101741       4.91506782       8.55113516       0.00607690       0.00146010      -0.00241119        1       0.00000000
Cu       8.12900888       6.56818977       8.84437371       0.00275025       0.00051110       0.00446148        0       0.00000000
Cu       7.40213616      11.43820092       8.30149485       0.00646564       0.00010106       0.00014138        0       0.00000000
Cu       6.29007200       9.21678325       8.13362576       0.00351282       0.00380013      -0.00328855        0       0.00000000
Cu       9.74044845      10.26961565       2.58778483       0.00424194       0.00065807      -0.00263958        1       0.00000000
Cu       8.15335654       8.30443649       2.64857870      -0.00018589      -0.00146860       0.00005125        1       0.00000000
Cu      10.70058815       8.00803579       3.15239213      -0.00211128      -0.00215789      -0.00417014        1       0.00000000
Cu       6.59932577       6.35781792       2.77709390      -0.00260545      -0.00070655      -0.00127013        1       0.00000000
Cu       9.09026073       6.03523693       3.20447788      -0.00263341      -0.00081973       0.00025908        1       0.00000000
Cu      11.56359029       5.73933341       3.69189458       0.00193350       0.00296568      -0.00025756        1       0.00000000
Cu       7.43449396      10.52124955       3.59491594      -0.00228391      -0.00136327       0.00253780        1       0.00000000
Cu       5.82124114       8.51194613       3.80061300       0.00022690      -0.00540312       0.00289302        1       0.00000000
Cu      11.50309906      10.06977077       4.38681551       0.00224142      -0.00193455      -0.00008048        1       0.00000000
Cu       9.51083994      11.67793161       4.65513416       0.00443216      -0.00070942       0.00042685        1       0.00000000
Cu       9.19014912       9.15712936       4.73358141       0.00057815      -0.00178032       0.00722319        0       0.00000000
Cu      12.43524792       7.69064204       5.06172185       0.00236098       0.00168563      -0.00428645        1       0.00000000
Cu       7.64943620       7.21694174       4.88688138      -0.00325879      -0.00027317      -0.00373142        0       0.00000000
Cu       7.32873022       4.74232930       4.51370771      -0.00229477       0.00051515       0.00096711        1       0.00000000
Cu       5.15756048      10.72045124       4.67455075      -0.00196262      -0.00452959       0.00098618        1       0.00000000
Cu       9.85963409       4.41324285       4.97410749      -0.00247483       0.00179430       0.00004552        1       0.00000000
Cu      10.09287927       6.90688477       5.34439897      -0.00281670       0.00044164      -0.00150356        0       0.00000000
Cu       5.32708212       6.33956177       4.97124361      -0.00224640       0.00246368       0.00028895        1       0.00000000
Cu       7.25162546      11.91292976       5.67640767      -0.00307685      -0.00250942      -0.00093187        1       0.00000000
Cu       6.92872623       9.43612407       5.81779125      -0.00184508      -0.00162884       0.00002066        0       0.00000000
Cu      12.54378963      10.08099246       8.06642195       0.00036466       0.00026191      -0.00112088        1       0.00000000
Cu      11.92844676       5.43020314       6.14513787       0.00120697      -0.00151223      -0.00183510        1       0.00000000
Cu       4.63155418       8.62180930       6.30357454       0.00072490       0.00146163       0.00184437        1       0.00000000
Cu      11.22050331      11.53507782       6.47001851       0.00210323       0.00065506      -0.00283772        1       0.00000000
Cu      10.96261720       8.97975317       6.50401586      -0.00346831       0.00031549       0.00323835        1       0.00000000
Cu       8.97396535      10.48291658       6.75670862      -0.00466339      -0.00410942      -0.00128475        0       0.00000000
Cu       8.66991114       8.11261552       7.06076700       0.00568325       0.00475625      -0.00134238        0       0.00000000
Cu       9.11659254      12.91747913       7.33619057       0.00080036      -0.00127357       0.00152498        1       0.00000000
Cu       8.38213064       5.57443890       6.60365249      -0.00004831      -0.00525899      -0.00318241        0       0.00000000
Cu       8.09686497       3.12436242       6.26995865       0.00230937       0.00271813      -0.00080187        1       0.00000000
Cu       6.41245717       7.05403671       7.08979765       0.00158135      -0.00333058      -0.00123261        0       0.00000000
Cu      12.63273056       7.44027603       7.72613685       0.00194212       0.00089114       0.00388041        1       0.00000000
Cu       6.08722985       4.59242453       6.72103533       0.00052378       0.00261251      -0.00093530        1       0.00000000
Cu       5.25953709      11.19961978       7.05623698      -0.00297213       0.00122855      -0.00497352        1       0.00000000
Cu       6.49467110      13.52432534       7.32005342       0.00085203       0.00216583      -0.00294778        1       0.00000000
Cu       4.13632441       6.13495703       7.14034804       0.00092771       0.00000133       0.00432747        1       0.00000000
Cu      10.38337444       6.44449461       7.79762578       0.00397976       0.00514399       0.00385879        0       0.00000000
Cu      10.14585294       3.98832732       7.43768717      -0.00085025      -0.00380512      -0.00471579        1       0.00000000
Cu       4.16899465      10.16715120       9.04394320      -0.00104534       0.00132239      -0.00126970        1       0.00000000
H        9.36608646       8.53016313      14.65740853       0.00000000       0.00000000       0.00000000        2       1.00000000
H        8.95822517      10.76798779      14.62377888       0.00000000       0.00000000       0.00000000        2       2.00000000
H        7.43292983       7.45943550      14.31536096       0.00000000       0.00000000       0.00000000        2       3.00000000
H        6.84551412      11.05607316      14.30633481       0.00000000       0.00000000       0.00000000        2       4.00000000
H        5.85645211       8.98767407      14.11918998       0.00000000       0.00000000       0.00000000        2       5.00000000
H       10.53164611       8.07430729      14.01534168       0.00000000       0.00000000       0.00000000        2       6.00000000
H        9.91942346      11.67804734      13.87795287       0.00000000       0.00000000       0.00000000        2       7.00000000
H       11.71956615       9.05545120      13.76964539       0.00000000       0.00000000       0.00000000        2       8.00000000
H       11.27962076      11.25425230      13.66987463       0.00000000       0.00000000       0.00000000        2       9.00000000
H        7.41342635       6.19330796      13.23814492       0.00000000       0.00000000       0.00000000        2      10.00000000
H       10.60485477       6.71522965      13.58927540       0.00000000       0.00000000       0.00000000        2      11.00000000
H        8.59116791       5.53701508      13.03846603       0.00000000       0.00000000       0.00000000        2      12.00000000
H        6.43144078      12.13192554      13.39336561       0.00000000       0.00000000       0.00000000        2      13.00000000
H        9.48807554      12.96933118      13.34822732       0.00000000       0.00000000       0.00000000        2      14.00000000
H        7.35717555      13.26789982      13.05589873       0.00000000       0.00000000       0.00000000        2      15.00000000
H        4.84638112       8.82806170      13.14652223       0.00000000       0.00000000       0.00000000        2      16.00000000
H        5.11704024      12.07386445      12.80556123       0.00000000       0.00000000       0.00000000        2      17.00000000
H        4.09033249      10.06813365      12.64690583       0.00000000       0.00000000       0.00000000        2      18.00000000
H        6.19924783       5.85285344      12.64111698       0.00000000       0.00000000       0.00000000        2      19.00000000
H        4.53474455       7.52042338      12.63410556       0.00000000       0.00000000       0.00000000        2      20.00000000
H       13.13900648       8.57775631      12.13648560       0.00000000       0.00000000       0.00000000        2      21.00000000
H       12.43772578      12.13422806      11.96231708       0.00000000       0.00000000       0.00000000        2      22.00000000
H       13.59641367      10.49784995      11.00954544       0.00000000       0.00000000       0.00000000        2      23.00000000
H       12.09304788       6.24834424      11.97018592       0.00000000       0.00000000       0.00000000        2      24.00000000
H       12.92657770       7.36872330      11.37111865       0.00000000       0.00000000       0.00000000        2      25.00000000
H       10.59374899      13.88352614      11.56779184       0.00000000       0.00000000       0.00000000        2      26.00000000
H       11.71430292      13.15747036      11.05175902       0.00000000       0.00000000       0.00000000        2      27.00000000
H        9.04506473       4.32489681      11.38603526       0.00000000       0.00000000       0.00000000        2      28.00000000
H       11.40190589       4.85334021      10.76816302       0.00000000       0.00000000       0.00000000        2      29.00000000
H        7.05716700      14.37685632      11.12478145       0.00000000       0.00000000       0.00000000        2      30.00000000
H        9.07614452      14.73330228      10.19781910       0.00000000       0.00000000       0.00000000        2      31.00000000
H        5.93913181       4.75693233      10.83270445       0.00000000       0.00000000       0.00000000        2      32.00000000
H        8.50150437       3.93507246      10.53352499       0.00000000       0.00000000       0.00000000        2      33.00000000
H        6.54179617       4.22847579      10.19635066       0.00000000       0.00000000       0.00000000        2      34.00000000
H        4.75910485      13.19800512      10.93214814       0.00000000       0.00000000       0.00000000        2      35.00000000
H        5.95849236      13.97510653      10.31235934       0.00000000       0.00000000       0.00000000        2      36.00000000
H        3.11299371       9.96390948      10.65171486       0.00000000       0.00000000       0.00000000        2      37.00000000
H        3.50321411       7.43207551      10.61679176       0.00000000       0.00000000       0.00000000        2      38.00000000
H        3.20602346       8.72495954       9.88141390       0.00000000       0.00000000       0.00000000        2      39.00000000
H        3.51397614      11.90948142       9.58367939       0.00000000       0.00000000       0.00000000        2      40.00000000
H        4.10553546       5.88743543       9.58355888       0.00000000       0.00000000       0.00000000        2      41.00000000
H       13.67599764      10.43456282       9.57035154       0.00000000       0.00000000       0.00000000        2      42.00000000
H       13.43540371       7.18334382       9.66182023       0.00000000       0.00000000       0.00000000        2      43.00000000
H       13.86734890       8.87493806       8.64151976       0.00000000       0.00000000       0.00000000        2      44.00000000
H       11.50990438      12.39318531       8.59014137       0.00000000       0.00000000       0.00000000        2      45.00000000
H       11.90596424      11.90837037       8.34516681       0.00000000       0.00000000       0.00000000        2      46.00000000
H       11.67656066       4.83246885      10.40826848       0.00000000       0.00000000       0.00000000        2      47.00000000
H       13.32868561       6.28360397       9.24714860       0.00000000       0.00000000       0.00000000        2      48.00000000
H        9.22107749      14.45547519       8.61293338       0.00000000       0.00000000       0.00000000        2      49.00000000
H       10.95741539      12.67186357       8.07100172       0.00000000       0.00000000       0.00000000        2      50.00000000
H        9.46235776       3.24490126       9.10497609       0.00000000       0.00000000       0.00000000        2      51.00000000
H       10.94150605       3.52042136       9.09928133       0.00000000       0.00000000       0.00000000        2      52.00000000
H        5.96330056      14.28584820       8.95644988       0.00000000       0.00000000       0.00000000        2      53.00000000
H        8.05079858      14.54972946       7.84434876       0.00000000       0.00000000       0.00000000        2      54.00000000
H        5.92964978       3.76791627       8.47852474       0.00000000       0.00000000       0.00000000        2      55.00000000
H        6.68051393       2.93571874       7.53816044       0.00000000       0.00000000       0.00000000        2      56.00000000
H        8.87785496       2.61085404       7.92982154       0.00000000       0.00000000       0.00000000        2      57.00000000
H        4.64187381      12.99108839       7.57996956       0.00000000       0.00000000       0.00000000        2      58.00000000
H        3.85227551      11.85195861       8.16660618       0.00000000       0.00000000       0.00000000        2      59.00000000
H        3.94352306       5.92551069       9.05333297       0.00000000       0.00000000       0.00000000        2      60.00000000
H        3.21162671       7.74389369       7.51573961       0.00000000       0.00000000       0.00000000        2      61.00000000
H        3.21224311       8.65068740       7.99870894       0.00000000       0.00000000       0.00000000        2      62.00000000
H        4.67017840       4.46172731       7.99122212       0.00000000       0.00000000       0.00000000        2      63.00000000
H       11.89249564      11.90403256       8.21234166       0.00000000       0.00000000       0.00000000        2      64.00000000
H       11.41464866      10.96353512       6.93648327       0.00000000       0.00000000       0.00000000        2      65.00000000
H       11.96050249      10.40927998       7.70171466       0.00000000       0.00000000       0.00000000        2      66.00000000
H       10.96106551      12.67156175       8.02159427       0.00000000       0.00000000       0.00000000        2      67.00000000
H       13.45229430       5.65234068       7.28852176       0.00000000       0.00000000       0.00000000        2      68.00000000
H       12.04979055       3.73840810       7.08915748       0.00000000       0.00000000       0.00000000        2      69.00000000
H        9.74678622       8.64927493       1.58322359       0.00000000       0.00000000       0.00000000        2      70.00000000
H        7.99073363      10.02892620       1.82619941       0.00000000       0.00000000       0.00000000        2      71.00000000
H       11.54219126       9.61462310       2.51798214       0.00000000       0.00000000       0.00000000        2      72.00000000
H        8.69540610      11.83227455       2.90283262       0.00000000       0.00000000       0.00000000        2      73.00000000
H       10.91217860      11.58211286       3.33027394       0.00000000       0.00000000       0.00000000        2      74.00000000
H        9.53052795       7.24105331       1.78831170       0.00000000       0.00000000       0.00000000        2      75.00000000
H        8.12740011       6.67534425       1.66012574       0.00000000       0.00000000       0.00000000        2      76.00000000
H        6.34861728       8.05931254       1.98404770       0.00000000       0.00000000       0.00000000        2      77.00000000
H        6.62077053       9.41409903       2.24997937       0.00000000       0.00000000       0.00000000        2      78.00000000
H       10.66593051       6.38710322       2.13566030       0.00000000       0.00000000       0.00000000        2      79.00000000
H       12.49718646       7.30525884       3.14957560       0.00000000       0.00000000       0.00000000        2      80.00000000
H       12.47716696       8.72046508       3.37638497       0.00000000       0.00000000       0.00000000        2      81.00000000
H        7.70225712       4.80302484       2.64065732       0.00000000       0.00000000       0.00000000        2      82.00000000
H        4.83778363       6.97774390       3.22376524       0.00000000       0.00000000       0.00000000        2      83.00000000
H        5.63141061       4.95975601       3.62393551       0.00000000       0.00000000       0.00000000        2      84.00000000
H       10.23167633       4.48874850       3.09901217       0.00000000       0.00000000       0.00000000        2      85.00000000
H        8.79594080       4.15043071       3.37795053       0.00000000       0.00000000       0.00000000        2      86.00000000
H       13.14939333       5.91764182       4.74519620       0.00000000       0.00000000       0.00000000        2      87.00000000
H       11.76081900       4.14714273       4.70938252       0.00000000       0.00000000       0.00000000        2      88.00000000
H        5.63733958      10.20618154       2.91477622       0.00000000       0.00000000       0.00000000        2      89.00000000
H        7.85596910      12.38652417       3.94455581       0.00000000       0.00000000       0.00000000        2      90.00000000
H        6.37275002      12.06112914       3.95237424       0.00000000       0.00000000       0.00000000        2      91.00000000
H        4.07831270       9.15600760       4.39710452       0.00000000       0.00000000       0.00000000        2      92.00000000
H        4.13082235       7.79282834       4.48983926       0.00000000       0.00000000       0.00000000        2      93.00000000
H       11.40421777      12.00286675       4.62100099       0.00000000       0.00000000       0.00000000        2      94.00000000
H       12.62750148       9.45365805       5.84938015       0.00000000       0.00000000       0.00000000        2      95.00000000
H       12.44771250      10.07516743       6.03650484       0.00000000       0.00000000       0.00000000        2      96.00000000
H        8.50021749      13.29109177       5.35211979       0.00000000       0.00000000       0.00000000        2      97.00000000
H       10.47445941      13.10056306       5.74228411       0.00000000       0.00000000       0.00000000        2      98.00000000
H       13.53278472       6.52715779       6.19132419       0.00000000       0.00000000       0.00000000        2      99.00000000
H       12.84722790       8.96492523       6.45578971       0.00000000       0.00000000       0.00000000        2     100.00000000
H        8.46557654       3.18252510       4.39726285       0.00000000       0.00000000       0.00000000        2     101.00000000
H        5.46505901       4.38639421       4.90487770       0.00000000       0.00000000       0.00000000        2     102.00000000
H        6.42190372       3.27543723       5.35400795       0.00000000       0.00000000       0.00000000        2     103.00000000
H        5.35287062      12.38862851       5.60186550       0.00000000       0.00000000       0.00000000        2     104.00000000
H        3.80229862      10.47868337       6.00346478       0.00000000       0.00000000       0.00000000        2     105.00000000
H       11.29749504       3.57542413       5.93125150       0.00000000       0.00000000       0.00000000        2     106.00000000
H        9.96290908       2.77258424       5.97362292       0.00000000       0.00000000       0.00000000        2     107.00000000
H        3.60201511       7.04844166       5.53809854       0.00000000       0.00000000       0.00000000        2     108.00000000
H        4.40943764       4.84704052       5.77316832       0.00000000       0.00000000       0.00000000        2     109.00000000
H        7.84067080      13.71267787       5.96917076       0.00000000       0.00000000       0.00000000        2     110.00000000
H        5.56749300      12.71643842       5.83638696       0.00000000       0.00000000       0.00000000        2     111.00000000
H       12.48687568      10.09534375       6.16408560       0.00000000       0.00000000       0.00000000        2     112.00000000
H       12.86521138       8.98145809       6.49936061       0.00000000       0.00000000       0.00000000        2     113.00000000
H        3.57190059      10.38706967       7.05932491       0.00000000       0.00000000       0.00000000        2     114.00000000
